      15
 i =   155400, time =    31080.000, E =       -15.9236668180
  C        -0.0631110991        0.0597394672        0.0213584744
  C        -0.0062845111       -0.0582693470        0.0144241714
  C        -0.0043523371       -0.0134457126       -0.0080590665
  C         0.0316323925        0.0417496441       -0.0032997824
  C        -0.0167133107       -0.0331454021       -0.0230548380
  H         0.0120520161       -0.0158761626        0.0127879352
  H         0.0308842351       -0.0162076695       -0.0115109097
  H         0.0141269866       -0.0024009130       -0.0007712945
  H         0.0069633125        0.0177802405       -0.0097100304
  H         0.0003716791        0.0034050798        0.0084569868
  H         0.0016710599        0.0024009920       -0.0042384573
  H         0.0008630842        0.0084309930       -0.0006699854
  H         0.0093223906       -0.0062966835       -0.0113037289
  H        -0.0066845316        0.0023987721        0.0082465881
  H        -0.0107413670        0.0097367015        0.0073439373
