      15
 i =   180700, time =    36140.000, E =       -15.9236778277
  C        -0.0095222769        0.0445561057        0.0168917370
  C         0.0305154058       -0.0202305422       -0.0283019626
  C        -0.0100599915       -0.0256030639       -0.0005768357
  C        -0.0621162193        0.0496717725        0.0120080982
  C         0.0250064528       -0.0070217896       -0.0019377743
  H        -0.0021681010       -0.0170820989        0.0009834723
  H         0.0165652531        0.0033187352       -0.0015448596
  H         0.0075421686        0.0066664434        0.0019842221
  H        -0.0001147896       -0.0166261966        0.0115994059
  H        -0.0028968475        0.0037944233       -0.0128380761
  H        -0.0036795156        0.0055404553        0.0063246662
  H        -0.0026829032        0.0040005340       -0.0044175580
  H         0.0137937446       -0.0064841995        0.0074150186
  H        -0.0065254378       -0.0086491631       -0.0130680761
  H         0.0063430575       -0.0158514157        0.0054785221
