      15
 i =   131200, time =    26240.000, E =       -15.9268911143
  C        -0.0269751026        0.8072114385        0.6843700577
  C         0.5362187262       -0.5135621675        0.0391183754
  C         0.3236454166        0.8614374660        2.1669005982
  C         0.0556696399       -0.5969524241       -1.3973211239
  C        -1.1817783018       -0.6497840931       -1.7191900908
  H        -1.0701538492        0.9158481090        0.5255333420
  H         0.4889646117        1.7107342986        0.1715013156
  H         0.0016556453       -1.3426681129        0.5752363788
  H         1.6296941190       -0.5836807628        0.0801938058
  H        -0.2891758701        0.1131490313        2.6958633945
  H         0.1650940572        1.8424725228        2.6085580191
  H         1.3691313229        0.5762926014        2.2992679565
  H         0.8539924509       -0.3463201183       -2.1098975790
  H        -1.5868623231       -0.6129101127       -2.7213832723
  H        -1.9289182462       -0.8238023777       -0.9564819151
