      15
 i =   611900, time =   122380.000, E =       -15.9262688636
  C         1.0951579087        0.2628474302        0.6768937637
  C         0.1434167076        0.7046833162       -0.4948907832
  C         0.4356109234        0.4795902301        1.9914857186
  C        -1.0384202298       -0.1876045628       -0.7741221223
  C        -1.0102843993       -1.2880513940       -1.5410059343
  H         2.0797163013        0.7446469604        0.6110722967
  H         1.2829369663       -0.8114570859        0.5457090291
  H         0.8327132091        0.6638887560       -1.4511886233
  H        -0.3168237129        1.6916448680       -0.3231026823
  H        -0.6099467917        0.1170454479        1.9120705892
  H         0.4025498249        1.5683438050        2.1436730369
  H         0.9352136453        0.0372350731        2.8551069892
  H        -2.0092578777        0.1865682292       -0.4572886436
  H        -1.8996608803       -1.8665939815       -1.6921668062
  H        -0.0952472959       -1.6342883921       -1.9821983818
