      15
 i =   956600, time =   191320.000, E =       -15.9203398123
  C        -0.1651992725        0.0791737562       -0.0360879373
  C         0.3574601342       -0.2094860887       -0.0304977641
  C         0.0016271558       -0.0110219848        0.0104949892
  C        -0.3980033770        0.2150289138        0.1196041961
  C         0.2015731130       -0.1106264847       -0.1033878655
  H        -0.0032182686        0.0109194764       -0.0017446618
  H         0.0291796369       -0.0025247164        0.0067641784
  H        -0.0223107566       -0.0007895358        0.0226292748
  H        -0.0058124223        0.0107276944       -0.0055111712
  H         0.0008946059        0.0213514654       -0.0041727351
  H        -0.0073781835       -0.0057174496       -0.0039288179
  H        -0.0057014478       -0.0016143382       -0.0032547471
  H         0.0145203475       -0.0008297803        0.0092480908
  H        -0.0080323698        0.0028507249        0.0042949027
  H         0.0104011049        0.0025583474        0.0155500678
