      15
 i =  1478100, time =   295620.000, E =       -15.9249465119
  C         0.0237707978        0.9197320589        0.5346272450
  C         0.3461327517        0.0011036407       -0.6163780784
  C         1.2043197668        1.7695069492        1.0842267095
  C        -0.8846529694       -0.8664023130       -0.9050888075
  C        -1.0998820379       -1.9867378880       -0.2080743608
  H        -0.3645211818        0.2888697793        1.4044544986
  H        -0.8635387406        1.4608168138        0.1571031288
  H         1.2394551380       -0.5939352945       -0.4177254830
  H         0.5997062057        0.5475464624       -1.5474648102
  H         1.1518810828        1.9200533731        2.1816617159
  H         1.1486520931        2.7649974016        0.6002898303
  H         2.0938355284        1.2778767118        0.7762697237
  H        -1.5692124262       -0.5474934431       -1.7209056697
  H        -2.0165300523       -2.5244676161       -0.2474665956
  H        -0.3910265296       -2.2973461197        0.6066429852
