      15
 i =  1029700, time =   205940.000, E =       -15.9186258217
  C        -0.1195715577        0.0674554164       -0.0352496191
  C         0.2041136535       -0.0479308187        0.0437318088
  C        -0.0018826744       -0.0194552316        0.0145711319
  C        -0.2406575422        0.0598049198       -0.0923271273
  C         0.1304916404       -0.0405666911        0.0617472492
  H        -0.0014975381        0.0031998357        0.0036266822
  H        -0.0019974332       -0.0132398165        0.0018126107
  H        -0.0024458275        0.0031250624       -0.0075912670
  H         0.0166206543       -0.0153929185        0.0276101851
  H         0.0050996140        0.0161661618       -0.0016588563
  H        -0.0016036040       -0.0091223811       -0.0017152130
  H         0.0117752871        0.0021864009       -0.0039580007
  H        -0.0014699628        0.0040455335        0.0137341836
  H        -0.0017480694       -0.0065868408       -0.0005116708
  H         0.0047733598       -0.0036886322       -0.0238220973
