      15
 i =   504300, time =   100860.000, E =       -15.9203658963
  C        -0.0457116922        0.0101772309        0.0040253435
  C         0.0146598057       -0.0439434752       -0.0014675185
  C        -0.0085040925       -0.0105509444        0.0034418559
  C        -0.0408508211        0.0636599315       -0.0603250558
  C         0.0417342232       -0.0564611513        0.0251980528
  H        -0.0016910119       -0.0045274818        0.0005996992
  H        -0.0017932443        0.0071957654        0.0076578659
  H         0.0589495765        0.0384287846       -0.0054220139
  H         0.0141666020       -0.0110024864        0.0182471132
  H         0.0021064646        0.0017288994       -0.0016096254
  H        -0.0061265387       -0.0020022100       -0.0026024531
  H         0.0044078781        0.0044855893       -0.0009182047
  H        -0.0268681823        0.0045376415        0.0110550131
  H        -0.0063594012        0.0007875042       -0.0015709134
  H         0.0018804341       -0.0025135975        0.0036908414
