      15
 i =   502200, time =   100440.000, E =       -15.9193590373
  C        -0.0381673923       -0.2162062718        0.9828767105
  C         0.4622769572        0.5496089547       -0.2539356168
  C         0.4778786227        0.5569790328        2.2528623373
  C        -0.3329163680        0.1113362373       -1.4509330164
  C        -0.8835415570       -1.0440438432       -1.7381834327
  H         0.3421743416       -1.2723241944        0.9001186454
  H        -1.1209775015       -0.1634806243        0.8193279518
  H         1.5004473169        0.4305418067       -0.5173768351
  H         0.2445500742        1.7090840353       -0.0806008166
  H        -0.1648516559        1.4290785385        2.3529759370
  H         1.5122877122        0.9141361982        2.1677490005
  H         0.3967211400       -0.0497939458        3.1495269781
  H        -0.5353621860        0.8852603614       -2.1067839452
  H        -1.4184588272       -1.1146014274       -2.6778036774
  H        -0.8698902837       -1.9065333975       -1.0628734292
