      15
 i =    82000, time =    16400.000, E =       -15.9262649130
  C        -0.3919283741        0.3028889476        1.1074832319
  C         0.5003582599       -0.1279290156       -0.0135923122
  C         0.1767158903        1.3928475860        2.0766388311
  C        -0.3429485566       -0.8686992422       -1.0181587598
  C        -0.2407904553       -0.8356789064       -2.3421807547
  H        -0.7505495580       -0.4981689226        1.8199841902
  H        -1.3432364053        0.7531940821        0.6460249864
  H         1.2714925896       -0.8782044533        0.1882558286
  H         1.0476730947        0.7503755143       -0.4027094009
  H         1.1122804174        1.0413189889        2.4914826580
  H        -0.5330193018        1.5989863914        2.8879528519
  H         0.3741708133        2.3112404124        1.5090657932
  H        -1.1888017963       -1.3636008008       -0.5493978519
  H        -0.9014671165       -1.3791241643       -3.0157103615
  H         0.6089116297       -0.3516212409       -2.8392591722
