      15
 i =  1287500, time =   257500.000, E =       -15.9274315619
  C        -0.0046309832       -0.0368727021       -0.0095884996
  C         0.0332321569       -0.0031508309       -0.0023358359
  C        -0.0107030758        0.0172526210        0.0145524407
  C        -0.0207268300       -0.0016824194        0.0040655663
  C         0.0136622457        0.0144650030       -0.0118047119
  H        -0.0032931057        0.0000562792       -0.0034015277
  H         0.0014007416        0.0004178511       -0.0031591098
  H        -0.0294530234        0.0214396018        0.0125229633
  H        -0.0033806952        0.0074242651       -0.0107864776
  H         0.0086737923        0.0017125777        0.0066422906
  H        -0.0021258798       -0.0041269051       -0.0007080192
  H         0.0029568534        0.0026696685        0.0036081077
  H         0.0091547456       -0.0121927366       -0.0080722648
  H        -0.0021890994        0.0001970516        0.0009415031
  H         0.0074221570       -0.0076093250        0.0075235746
