      15
 i =   542000, time =   108400.000, E =       -15.9211229332
  C        -0.3628996398        0.4543108592        1.2647602476
  C        -0.4186811062        0.7935008247       -0.2118211080
  C         0.9541775866        0.0492682254        1.8934806723
  C         0.0732852770       -0.3358439372       -1.0840691663
  C        -0.6068958134       -0.9479868298       -2.0485944759
  H        -1.0121506914       -0.4179676999        1.3584405835
  H        -0.6473589604        1.2762288088        1.9241518227
  H         0.2871310534        1.6837701062       -0.3852239219
  H        -1.3668453629        1.1908950357       -0.4581565342
  H         0.8635572808       -0.0368429057        2.9799038798
  H         1.7008271306        0.7811280855        1.6177454646
  H         1.2729346613       -0.9356450332        1.5641947032
  H         1.0008871287       -0.7886019511       -0.9311961225
  H        -0.0978115821       -1.8663223492       -2.4568204328
  H        -1.5599087032       -0.6875116276       -2.5198418918
