      15
 i =  1104000, time =   220800.000, E =       -15.9166796484
  C         0.0678620652       -0.0238226877       -0.0182651324
  C        -0.0999892855        0.0440384556       -0.0399621422
  C        -0.0056466400        0.0184395142        0.0164203254
  C         0.1023128501       -0.1316548084        0.0004931760
  C        -0.0632138153        0.0656351226        0.0017756230
  H         0.0001265080        0.0005723863        0.0251400020
  H         0.0089272312       -0.0125872938       -0.0090082035
  H        -0.0100303370       -0.0002360074        0.0064899934
  H        -0.0096406257        0.0013052157       -0.0019869208
  H         0.0039463002        0.0067780471       -0.0014529736
  H        -0.0033659403        0.0032082824       -0.0040046509
  H         0.0002575684       -0.0032787014       -0.0027421037
  H         0.0128015904        0.0261293623       -0.0080796908
  H         0.0148752041        0.0158192737        0.0130888067
  H        -0.0192226740       -0.0103461611        0.0220938914
