      15
 i =    71400, time =    14280.000, E =       -15.9217225334
  C        -0.0097193202       -0.0233507030        0.0100723236
  C         0.0129026263       -0.0212416948       -0.0086643554
  C         0.0091683192        0.0279853081        0.0153128699
  C        -0.0010797683        0.0018790456       -0.0152429847
  C         0.0106295128       -0.0146238185        0.0275829366
  H        -0.0032236053        0.0084355488       -0.0047573524
  H        -0.0170037419       -0.0026917968       -0.0095884765
  H         0.0041090213       -0.0058086184       -0.0086727354
  H        -0.0108611452        0.0068138413       -0.0118680610
  H         0.0096179213        0.0037968317        0.0073913888
  H         0.0015170433       -0.0092935087        0.0002440746
  H         0.0019523628       -0.0042868713       -0.0007114471
  H        -0.0042437824       -0.0010973856       -0.0035951543
  H         0.0021159486        0.0257248419        0.0113578937
  H        -0.0058813924        0.0077589798       -0.0088609205
