      15
 i =   985400, time =   197080.000, E =       -15.9237205700
  C         0.6643518052        0.5813015204        0.6870747137
  C        -0.3889027067        0.3328265546       -0.4185613900
  C         0.9428966785        2.0661726426        1.0630694016
  C        -0.3065040116       -1.1360312556       -0.7649596457
  C        -1.3153432425       -2.0332058034       -0.6727191343
  H         1.5527695449        0.2206002273        0.2340295934
  H         0.4368400865       -0.0322565061        1.6341944683
  H        -0.0829446020        0.9914357968       -1.2973402915
  H        -1.3866200977        0.6268392010       -0.1479570899
  H         0.1927152543        2.6281793199        1.6265991117
  H         1.1295303740        2.6057310544        0.1355326419
  H         1.8731651757        2.0645669779        1.6382136533
  H         0.6814551040       -1.5258019069       -1.0513712047
  H        -1.1166943517       -3.1674415656       -0.6977240555
  H        -2.3326664654       -1.8034624625       -0.3360270852
