      15
 i =   727700, time =   145540.000, E =       -15.9227898343
  C         0.8562559983        0.6538158813        0.4196188149
  C        -0.2033119418        0.7923852960       -0.7425280889
  C         0.5223544004        0.6691167654        1.8913772851
  C        -0.8513699295       -0.4810843561       -1.1269500272
  C        -0.7275099807       -1.6670330294       -0.5896180136
  H         1.6826248869        1.3263806152        0.1964866300
  H         1.2907263541       -0.3277470171        0.2381713792
  H         0.3372048233        1.1929589673       -1.6093579854
  H        -0.9959422901        1.5191754325       -0.5537786776
  H        -0.1212456871       -0.1871350128        2.0876152055
  H         0.0036123669        1.5570762262        2.2636734599
  H         1.4501243766        0.4689563898        2.3957908423
  H        -1.6147384059       -0.3489289339       -1.9297330156
  H        -1.1154631342       -2.5285634935       -1.0340501009
  H         0.0315997355       -1.9243237914        0.1838549945
