      15
 i =   702900, time =   140580.000, E =       -15.9210302672
  C        -0.0085609731        0.0001031732       -0.0185748193
  C        -0.0223476078        0.0009791738        0.0182608778
  C        -0.0022598977       -0.0213581265       -0.0048847513
  C         0.0336743140        0.0187653338       -0.0551173609
  C         0.0078332130        0.0314030755        0.0007753159
  H        -0.0064313196        0.0004786969        0.0004644358
  H         0.0000599295        0.0154374330        0.0067288041
  H         0.0073682120        0.0012671923       -0.0060028313
  H         0.0199401003       -0.0020096221        0.0018958616
  H         0.0014724862        0.0139208734        0.0029203660
  H         0.0053588549        0.0000430286        0.0033926555
  H        -0.0046714208       -0.0044274282       -0.0053090633
  H        -0.0105324311       -0.0239849783        0.0473100867
  H        -0.0209362386       -0.0219293592       -0.0041894111
  H         0.0000327786       -0.0086884663        0.0123298338
