      15
 i =   644400, time =   128880.000, E =       -15.9249202307
  C        -0.0274946128        0.0152170779        0.0239660216
  C         0.0450187385       -0.0283433292       -0.0204369215
  C         0.0304425130       -0.0105578078       -0.0192637806
  C        -0.0323212375        0.0099936911        0.0001708691
  C         0.0160251014        0.0056559964       -0.0099113504
  H        -0.0136594661       -0.0017207204       -0.0024274878
  H        -0.0029276736       -0.0107833854        0.0001783172
  H        -0.0087919150       -0.0038409284        0.0225486700
  H        -0.0175148100        0.0263805907        0.0042544568
  H        -0.0010518788        0.0007906410        0.0007655753
  H         0.0014918000        0.0041445931       -0.0019319731
  H        -0.0010841401        0.0045836269       -0.0063420928
  H         0.0180747237       -0.0031984497        0.0022205190
  H        -0.0009478808       -0.0029660096        0.0043235386
  H        -0.0052592619       -0.0053555866        0.0018856385
