      15
 i =   500800, time =   100160.000, E =       -15.9175626939
  C         0.0479449867       -0.0708875826       -0.0169095888
  C        -0.0064640308        0.0335147246        0.0344227035
  C        -0.0151687200       -0.0035343539       -0.0167356690
  C         0.0311956315        0.0048519619       -0.0119756763
  C        -0.0315460275       -0.0421354699       -0.0077806760
  H         0.0173413638        0.0182035068        0.0048864714
  H        -0.0289607245        0.0383650287        0.0173555789
  H        -0.0103560327       -0.0016887430        0.0038668463
  H         0.0078317635       -0.0085435292       -0.0014479460
  H        -0.0035735563        0.0002563632       -0.0069024298
  H         0.0026689397        0.0038930308       -0.0005860515
  H        -0.0042096759        0.0012814507        0.0002763494
  H        -0.0222993637        0.0052948059       -0.0122650572
  H         0.0054014971        0.0154440951       -0.0005702041
  H         0.0101939490        0.0056847108        0.0143653493
