      15
 i =   250600, time =    50120.000, E =       -15.9212913106
  C        -0.0240505263        0.0151247715       -0.0075390376
  C        -0.0158246187        0.0054063270       -0.0087108255
  C         0.0138721362        0.0082104558        0.0100367726
  C         0.0097340672       -0.0047371994       -0.0286935858
  C        -0.0192535324       -0.0298729770       -0.0057817264
  H        -0.0086089594       -0.0058092881        0.0039083523
  H         0.0145328733       -0.0088743456        0.0134746352
  H         0.0371590442       -0.0018706633        0.0055462859
  H         0.0018176664       -0.0059468592       -0.0040432104
  H         0.0030005981       -0.0000675488       -0.0032297504
  H        -0.0079300426        0.0035673944       -0.0000371568
  H        -0.0066361146       -0.0047220878       -0.0019046595
  H        -0.0074544215       -0.0152454700        0.0132816828
  H         0.0012919773        0.0315526425        0.0251813739
  H         0.0083498527        0.0132848480       -0.0114891503
