      15
 i =   552900, time =   110580.000, E =       -15.9239678811
  C        -0.0821735523        0.0194622205        0.0128717216
  C         0.0746044988       -0.0183759456       -0.0361353596
  C         0.0392822380       -0.0037474779        0.0059340210
  C        -0.0733861978       -0.0240824422        0.0214353695
  C         0.0331080196        0.0211599397       -0.0236524624
  H        -0.0057219819       -0.0026193868        0.0035325950
  H         0.0063545881       -0.0001651496       -0.0053743671
  H         0.0130486593        0.0016407923       -0.0006913847
  H        -0.0030346998        0.0071361894        0.0026004251
  H        -0.0044242382        0.0027658310        0.0035800040
  H        -0.0081871988       -0.0088222323        0.0007687069
  H         0.0021315513       -0.0029133108        0.0008708267
  H         0.0021128073        0.0055221054        0.0064591544
  H        -0.0018708036        0.0003199963        0.0160423292
  H         0.0081563100        0.0027188706       -0.0082415798
