      15
 i =   213500, time =    42700.000, E =       -15.9182756500
  C         0.0255544943       -0.0069276662       -0.0322657929
  C        -0.0540749707        0.0541300201        0.0213946141
  C        -0.0042801592        0.0052724087        0.0252125072
  C         0.0297934779       -0.0376407218       -0.0296564204
  C        -0.0079985787       -0.0005164257        0.0267977348
  H        -0.0173014400       -0.0148162617       -0.0068104219
  H         0.0160502323       -0.0081697843        0.0070462141
  H         0.0192777592        0.0064643055        0.0043563712
  H         0.0068023719       -0.0163813611       -0.0010147667
  H        -0.0051289087        0.0060768048       -0.0026686573
  H        -0.0074684546       -0.0059675498        0.0004572287
  H         0.0093061446        0.0057923021       -0.0056456982
  H         0.0019365739        0.0064744362        0.0036017805
  H        -0.0095420621        0.0013447256        0.0121612953
  H        -0.0029264799        0.0048647676       -0.0229659884
