      15
 i =   578100, time =   115620.000, E =       -15.9276491579
  C         0.0198942937       -0.0583331586        0.0059447038
  C        -0.0318110365        0.1616035819       -0.0771003707
  C         0.0222290435       -0.0104416925       -0.0048341249
  C         0.0244492184       -0.1546502618        0.1203401552
  C        -0.0147222367        0.0786288362       -0.0729975134
  H         0.0046407381       -0.0030689871        0.0078289768
  H        -0.0114974538       -0.0025755581       -0.0020211018
  H         0.0021513421       -0.0071084734        0.0045304621
  H        -0.0011361183       -0.0059939098        0.0046232749
  H        -0.0023141165        0.0018372614        0.0072357078
  H        -0.0041056217       -0.0036074060        0.0006934319
  H        -0.0051767185        0.0013514802        0.0055623228
  H        -0.0060668683       -0.0032485626       -0.0064622317
  H         0.0055912312       -0.0020585872       -0.0071166910
  H        -0.0021256967        0.0076654374        0.0137729981
