      15
 i =   671000, time =   134200.000, E =       -15.9214730456
  C         0.0108578473       -0.0228467446       -0.0405166759
  C        -0.0808198121        0.0968553228       -0.0391557949
  C         0.0079412078       -0.0050199957       -0.0000134983
  C         0.0987005290       -0.1029865231        0.1550968633
  C        -0.0821801503        0.0464190119       -0.0922175036
  H         0.0093600350        0.0046008870       -0.0048144458
  H         0.0302665406       -0.0436891841        0.0264644725
  H        -0.0224594674       -0.0011903683       -0.0007100918
  H        -0.0071944924        0.0127709486       -0.0057327561
  H         0.0011043101       -0.0000420355        0.0018842415
  H        -0.0004151785        0.0075236900        0.0051658084
  H        -0.0045146460       -0.0062767104       -0.0055119705
  H         0.0071600289        0.0086231672        0.0072930071
  H         0.0166432743        0.0155828564        0.0021329022
  H         0.0155499737       -0.0103243222       -0.0093645583
