      15
 i =  1353300, time =   270660.000, E =       -15.9166558862
  C        -0.1123042099        1.0762159024        0.5410172612
  C         0.4113012033       -0.2985548977        0.2211414309
  C         1.1556277861        1.9286386113        0.5084879492
  C        -0.5847521484       -1.3661598447       -0.0400629576
  C        -1.3015204686       -1.5582475959       -1.2385327537
  H        -0.6682339981        1.1674528458        1.4892822990
  H        -0.8559166463        1.4200253233       -0.1868615307
  H         1.0480956143       -0.6516550308        1.0094171050
  H         1.1371980899       -0.1877214063       -0.5594366596
  H         1.5723481300        1.8936847483       -0.5082546166
  H         1.8986286124        1.5735971813        1.2239905813
  H         0.9422060122        2.9770230496        0.7009834118
  H        -0.9255965823       -1.8085342508        0.8720331568
  H        -2.0167463113       -2.3641789398       -1.4087373901
  H        -0.8490384409       -1.0636934745       -2.0637945537
