      15
 i =   485700, time =    97140.000, E =       -15.9186183840
  C        -0.0297021356       -0.0326654431       -0.0176719352
  C        -0.0337959660        0.0351823783        0.0336858973
  C         0.0054871032        0.0391390976       -0.0214474529
  C         0.0370201296       -0.0046624800       -0.0555631279
  C        -0.0219086603        0.0188854569        0.0293452219
  H         0.0159229491       -0.0288879534        0.0052600064
  H         0.0202976564        0.0073460403        0.0009668202
  H        -0.0117938264        0.0004164406        0.0096099672
  H         0.0102740816        0.0075292700       -0.0067117199
  H         0.0079455196       -0.0112410794        0.0035114669
  H         0.0006137956        0.0007283685        0.0018325576
  H        -0.0069789279       -0.0143974235        0.0053613045
  H         0.0019505132       -0.0104366045        0.0019888444
  H         0.0071442899       -0.0089264728        0.0105153486
  H        -0.0024765222        0.0019904045       -0.0006831991
