      15
 i =   260900, time =    52180.000, E =       -15.9161047566
  C        -0.0232923816        0.0202911227       -0.0114139527
  C        -0.0366484088       -0.0187822110        0.0184596726
  C        -0.0257505467        0.0141894617       -0.0001918459
  C         0.0153480168       -0.0370272810       -0.0185148319
  C        -0.0334674475       -0.0357329537        0.0469365672
  H         0.0075703942        0.0071403200       -0.0226077194
  H         0.0185319156       -0.0062076794       -0.0011427618
  H         0.0187901434       -0.0006925914       -0.0073141886
  H         0.0085806987        0.0004493794        0.0120885971
  H         0.0058925709       -0.0064015567       -0.0013410675
  H         0.0081498074       -0.0027090535        0.0050493039
  H         0.0082145207       -0.0044656183        0.0033749472
  H         0.0093359843        0.0265784793       -0.0049689029
  H         0.0066216735        0.0090049900        0.0041342389
  H         0.0121230590        0.0343651919       -0.0225480562
