      15
 i =   454000, time =    90800.000, E =       -15.9207973411
  C         0.9024579299        0.8432849328        0.7007638329
  C         0.8380000579       -0.2933401640       -0.3164897813
  C        -0.2752927007        0.8421546007        1.7293672422
  C        -0.4663882268       -0.2338767779       -1.1031145068
  C        -1.2734040789       -1.2223461120       -1.2307715673
  H         0.9982725574        1.7625255908        0.1801550714
  H         1.8084331594        0.6856562699        1.2627525387
  H         0.8856703586       -1.2537161271        0.2094049264
  H         1.6988453100       -0.2529027971       -1.0024488966
  H        -0.5264511313       -0.1068743567        2.2036808052
  H        -1.1568455331        1.3518337452        1.3389309790
  H         0.0425540439        1.5361065891        2.5074414536
  H        -0.7956030104        0.7210357474       -1.3730741932
  H        -2.3602097982       -1.1472848020       -1.4594516605
  H        -1.1827951002       -2.1752700661       -0.7690352205
