      15
 i =   475600, time =    95120.000, E =       -15.9249744871
  C         0.0062885566       -0.1702588217        1.4477190367
  C         0.3685596867       -0.3892458080       -0.0463730169
  C         0.5272880883        1.2105404792        1.8807757948
  C        -0.6939698459       -0.4995905914       -1.0961604309
  C        -0.5775295166       -0.2509509284       -2.3649670394
  H         0.4827115921       -0.8547498164        2.1521712282
  H        -1.1083408601       -0.2201887030        1.5634055531
  H         0.9359621332       -1.2835837956       -0.1838517540
  H         1.0859664550        0.4486832478       -0.2982934117
  H         0.2016039933        1.9610800634        1.1628282043
  H         1.6162662449        1.2449044634        1.8793588423
  H         0.1018017742        1.4921454270        2.8561886181
  H        -1.6742122277       -0.8315175853       -0.6627699296
  H        -1.4315029830       -0.4701184144       -3.0103113752
  H         0.3304972305        0.0560716569       -2.8517791372
