      15
 i =  1136700, time =   227340.000, E =       -15.9176870081
  C         0.0477528617       -0.0329735999       -0.0073341466
  C        -0.0296272923        0.0208037808       -0.0303632439
  C        -0.0084925302       -0.0017773384        0.0145078946
  C         0.0820357334       -0.0515713874        0.0108648557
  C        -0.0413826233        0.0534944714        0.0038643869
  H        -0.0205031705        0.0074100699        0.0066990967
  H         0.0022354862       -0.0096357898        0.0138146124
  H        -0.0129632195        0.0113603562        0.0161526756
  H        -0.0123260042        0.0117977199       -0.0143983427
  H         0.0030548017       -0.0011192861       -0.0058566373
  H         0.0017849743       -0.0023610187       -0.0017849120
  H        -0.0005209633        0.0010552128       -0.0047594071
  H         0.0004877318        0.0023409568        0.0014378244
  H        -0.0007665323       -0.0168655288       -0.0116051609
  H        -0.0107692536        0.0080413813        0.0087605041
