      15
 i =   743600, time =   148720.000, E =       -15.9143894772
  C         1.0079792872        0.8902682140        0.5018352630
  C         0.4445048764        0.3178673727       -0.6917234948
  C        -0.0511272298        0.9256929280        1.6534518751
  C        -0.3303462492       -0.9217345321       -0.4025784969
  C        -1.3704949470       -1.3105697243       -1.1771963753
  H         1.4884438869        1.9056862280        0.4005425802
  H         1.7948004107        0.2104747795        0.7667418586
  H         1.2757379237        0.0069660496       -1.3491035396
  H        -0.2162091448        0.9921662835       -1.1646880720
  H        -0.2013842556       -0.0444933173        2.1544035793
  H        -1.0537338082        1.2691893005        1.3919551439
  H         0.4384797584        1.6359587843        2.3193866869
  H        -0.0196165182       -1.6249535824        0.2982679198
  H        -1.9437469987       -2.2086986788       -1.1203721354
  H        -1.8546993384       -0.6118420202       -1.8384509900
