      15
 i =  1306200, time =   261240.000, E =       -15.9231527517
  C         0.0971068880       -0.0665981613       -0.0024209909
  C        -0.0549929449        0.0726263865       -0.0313768850
  C         0.0035994051       -0.0228880955        0.0064586031
  C        -0.0517365015       -0.0206444377        0.1468127871
  C         0.0693118300       -0.0181691252       -0.0851495766
  H        -0.0322862805        0.0163048127       -0.0223182622
  H        -0.0059583710        0.0044213032        0.0069164025
  H        -0.0026688801       -0.0090600577       -0.0049428261
  H        -0.0028514475        0.0007575276        0.0101735338
  H        -0.0085476924        0.0047883312       -0.0111654024
  H        -0.0036719370        0.0021920405        0.0002234308
  H         0.0075335967        0.0058737827        0.0009572264
  H        -0.0236889390        0.0325753673       -0.0279927240
  H         0.0047193199        0.0059244904        0.0076217903
  H         0.0041319541       -0.0081041647        0.0062028930
