      15
 i =  1207000, time =   241400.000, E =       -15.9256725878
  C         1.1209284671        0.6495798340        0.3648329421
  C         0.1566668377       -0.5645175142        0.5994891488
  C         0.4569082467        1.9954418546        0.6336519444
  C        -1.0025358273       -0.7120633299       -0.2933104857
  C        -1.1136406661       -1.5403363209       -1.3516837752
  H         1.5514089113        0.5336942173       -0.6383825734
  H         1.9093546183        0.5346760085        1.0911979104
  H        -0.3051155733       -0.3990589384        1.5893961581
  H         0.6606111115       -1.5376029724        0.7013086865
  H         1.2098026841        2.7533177993        0.4311042798
  H         0.0702679279        2.0825624119        1.6714706706
  H        -0.3749849375        2.1447098926       -0.0399313667
  H        -1.8911383560       -0.0154029089       -0.0685203023
  H        -1.8280642610       -1.4355288790       -2.1259746514
  H        -0.3147028120       -2.2560369133       -1.5774717476
