      15
 i =  1276500, time =   255300.000, E =       -15.9253262089
  C         0.0217661968        0.0224975869       -0.0056667988
  C         0.0279146497        0.0410621891        0.0054833002
  C        -0.0052582273       -0.0209972543       -0.0013984631
  C        -0.0221296231       -0.0306419509       -0.0182841632
  C         0.0205692380       -0.0021908097        0.0066742857
  H        -0.0110686417       -0.0107035694        0.0076833032
  H        -0.0152108799       -0.0034603681       -0.0030753212
  H        -0.0021472825        0.0060455171        0.0074269759
  H         0.0020948800       -0.0177684582        0.0029309155
  H        -0.0004914119       -0.0001757252        0.0036262583
  H        -0.0020756171       -0.0007902894       -0.0001514154
  H         0.0021452388       -0.0004547572        0.0018084596
  H         0.0013887754       -0.0109871817        0.0078507477
  H         0.0032357231       -0.0043922367        0.0012788259
  H        -0.0207330183        0.0329573077       -0.0161869104
