      15
 i =   569900, time =   113980.000, E =       -15.9235401496
  C         0.6636996576       -0.2577622234        1.2500448972
  C         0.7306246500       -0.3095094422       -0.2584649177
  C        -0.1269202688        1.0185893015        1.7399676044
  C        -0.5983083177       -0.6166982419       -0.8829703531
  C        -0.9712121459        0.0676408981       -1.9823371167
  H         1.7057424212       -0.2201134236        1.6514949610
  H         0.3351722353       -1.2058428755        1.6525110471
  H         1.4130100242       -1.1066364952       -0.6335259947
  H         1.0351183262        0.7071666384       -0.5869268175
  H        -0.6352115703        0.8464453301        2.7047793939
  H        -0.9338201290        1.2118994873        1.0301374476
  H         0.4660268934        1.9402639070        1.7808983773
  H        -1.3441548738       -1.2612696078       -0.5166807903
  H        -1.9202614657       -0.2221084480       -2.4529540252
  H        -0.3821848689        0.8318786704       -2.5619392589
