      15
 i =  1259800, time =   251960.000, E =       -15.9228375565
  C         0.0023756201        0.0041497203        0.0663127565
  C        -0.0862459451        0.0009807823       -0.1294201815
  C        -0.0023655316       -0.0202432074        0.0008277937
  C         0.2005635598        0.0153422183        0.1000062827
  C        -0.1528685977       -0.0515523811       -0.0343312077
  H         0.0102485624       -0.0015974808        0.0002731631
  H         0.0028739810        0.0165274309        0.0082693558
  H         0.0108758774        0.0086013747        0.0118251911
  H         0.0044105793       -0.0137944061       -0.0173223614
  H         0.0015412833        0.0161613790       -0.0003030334
  H        -0.0044094891       -0.0050059133        0.0045645193
  H        -0.0049795144        0.0015856609        0.0000135900
  H         0.0030771077        0.0019368064        0.0000474657
  H         0.0080808754        0.0220955399       -0.0072361787
  H         0.0068216317        0.0048124760       -0.0035271550
