      15
 i =  1002000, time =   200400.000, E =       -15.9192456843
  C        -0.0065745495       -0.0008680956        0.0330537931
  C         0.0154407964        0.0061050674       -0.0427344625
  C         0.0058487552       -0.0049440401       -0.0234827123
  C        -0.0200437046        0.0138532383       -0.0324306943
  C         0.0311577254       -0.0115079199        0.0288884187
  H        -0.0123657892       -0.0048387455        0.0019883241
  H        -0.0033108309        0.0062628012        0.0014832900
  H         0.0071097475       -0.0101104604        0.0048011821
  H         0.0024050157       -0.0029238303        0.0025958421
  H        -0.0072914456       -0.0034471750        0.0130677468
  H         0.0043411290        0.0045882200        0.0071112889
  H         0.0039877757       -0.0008457326        0.0034572011
  H         0.0087142111        0.0124659202        0.0007222584
  H        -0.0185575494        0.0014213297        0.0014823153
  H        -0.0108612869       -0.0052105774       -0.0000037916
