      15
 i =   141300, time =    28260.000, E =       -15.9151305941
  C        -0.0158280040        0.0127179346        0.0361987914
  C        -0.0091602890       -0.0370264142       -0.0132310989
  C         0.0016439277        0.0107630678        0.0160105387
  C        -0.0148675486        0.0300182014       -0.0180876348
  C         0.0294820031       -0.0253698358        0.0127622446
  H        -0.0042438101        0.0017131776       -0.0008431494
  H         0.0021346615       -0.0016837202       -0.0111222069
  H        -0.0142890349        0.0031648338       -0.0015763159
  H         0.0274515965        0.0281319106       -0.0141533879
  H         0.0072725601        0.0033705397        0.0035241513
  H         0.0006746479       -0.0027336095       -0.0031314571
  H        -0.0012656197       -0.0044677213        0.0018171553
  H         0.0070953443       -0.0380230190       -0.0030759070
  H        -0.0129305279        0.0154717572        0.0037772270
  H        -0.0031699067        0.0039528971       -0.0088689504
