      15
 i =  1090800, time =   218160.000, E =       -15.9068741390
  C        -0.0869433391        0.0505610225       -0.0734061438
  C         0.2517623034       -0.1794922990        0.0852160973
  C        -0.0172663160       -0.0063370096        0.0207444679
  C        -0.2184077074        0.1149456501       -0.0824343897
  C         0.1536298168       -0.0242575894        0.0413855408
  H        -0.0002315022       -0.0054081380       -0.0289079835
  H        -0.0047075972        0.0107494947        0.0035538147
  H        -0.0762343350        0.0592000497       -0.0059360478
  H        -0.0009821609       -0.0048037968        0.0101962234
  H         0.0159877706        0.0123306440        0.0057325477
  H        -0.0023033315       -0.0040498232       -0.0106458405
  H         0.0006395511       -0.0004669327        0.0110911080
  H        -0.0039759999       -0.0062616221        0.0102688582
  H        -0.0063946112       -0.0042662721        0.0057004627
  H        -0.0045725415       -0.0124433782        0.0074412845
