      15
 i =   121800, time =    24360.000, E =       -15.9235347809
  C        -0.2755845432        0.5488222427        0.9622004175
  C         0.5036862349       -0.3488443346       -0.0198421013
  C         0.5337044027        0.9515074719        2.1834554367
  C        -0.0787639385       -0.8597784282       -1.2797798598
  C        -1.0278210786       -0.3832973898       -2.0493750963
  H        -1.1422534319        0.0660683948        1.3787467897
  H        -0.5967640958        1.4402908014        0.3483690718
  H         0.8516391140       -1.2251699875        0.5263886991
  H         1.4675622666        0.1692192886       -0.4119579929
  H         0.8399173262        0.0035581516        2.6534513269
  H        -0.1838295869        1.3918903593        2.8749699291
  H         1.4201686890        1.5901986791        2.0867298390
  H         0.3881749529       -1.7569972279       -1.6614448781
  H        -1.2331900646       -0.8055132915       -3.0192518148
  H        -1.5636181723        0.5748627841       -1.8790696501
