      15
 i =  1022800, time =   204560.000, E =       -15.9265417906
  C         0.1111807888       -0.0290982695       -0.0487612710
  C        -0.1467245697        0.0673739438       -0.0476431391
  C        -0.0084459719        0.0083088492       -0.0163163205
  C         0.0741811831       -0.0438351066        0.2302124887
  C        -0.0201280973        0.0328851555       -0.1586019934
  H        -0.0189037773        0.0048187119       -0.0080234571
  H        -0.0047143840       -0.0080024289        0.0146546341
  H        -0.0231858607        0.0010970357        0.0134602874
  H         0.0221081848       -0.0233688253        0.0033927090
  H         0.0029482236       -0.0032789047        0.0048951485
  H         0.0002322440       -0.0033852328        0.0091979297
  H         0.0091990511        0.0009658991        0.0028881755
  H         0.0049300057        0.0035599067        0.0007871089
  H        -0.0025397792       -0.0172837097       -0.0025758812
  H        -0.0001372409        0.0092429754        0.0024335805
