      15
 i =  1166700, time =   233340.000, E =       -15.9205191772
  C         0.0991174735       -0.0595392484        0.0410393252
  C        -0.2338117982        0.2177820441       -0.0932099353
  C         0.0124132287       -0.0165899399       -0.0052313288
  C         0.2407268971       -0.2460513926        0.1346407752
  C        -0.1179819837        0.1595137862       -0.0772996948
  H         0.0091769989       -0.0125393910        0.0124786466
  H        -0.0033714329        0.0095457217        0.0072620205
  H         0.0307135063       -0.0178056740       -0.0195276285
  H         0.0044107870       -0.0026356999        0.0244470806
  H        -0.0099694862       -0.0087049879       -0.0043901631
  H        -0.0016010977       -0.0049020238       -0.0028672798
  H        -0.0069450974        0.0063793544       -0.0072122195
  H        -0.0028881224        0.0044658207       -0.0110708041
  H        -0.0021964639       -0.0172650160       -0.0066045945
  H        -0.0177934092       -0.0116533536        0.0075458002
