      15
 i =   146300, time =    29260.000, E =       -15.9213006659
  C        -0.0138000306       -0.0108261161       -0.0134121136
  C         0.0264127233        0.0335155653       -0.0133522792
  C         0.0080872686        0.0017800750        0.0156391060
  C        -0.0136773957        0.0164569367        0.0143890068
  C         0.0283866926       -0.0087575031       -0.0132864670
  H         0.0041461715        0.0013788740       -0.0004708807
  H         0.0090492320       -0.0132422623        0.0025381359
  H        -0.0019877097       -0.0230416489        0.0160270569
  H        -0.0274839838       -0.0021262814       -0.0040414946
  H        -0.0070755546        0.0091848496       -0.0013455194
  H         0.0036900056       -0.0046229647        0.0057270908
  H         0.0035072418        0.0081956632        0.0025775330
  H        -0.0062496712       -0.0043084014       -0.0115182482
  H        -0.0067381319        0.0119907446        0.0177798249
  H        -0.0062668578       -0.0155775304       -0.0172507516
