      15
 i =   602100, time =   120420.000, E =       -15.9197893444
  C         1.0575038860        0.6951326078        0.5613876208
  C        -0.0116392453        0.9417936899       -0.5930670748
  C         0.4310258368        0.0327763745        1.7205813333
  C        -0.9709949228       -0.2001735340       -1.0398955325
  C        -0.8833195584       -1.4817344968       -0.7800983306
  H         1.4490164082        1.7542313826        0.7787219390
  H         1.8561235470        0.1364728481        0.1459084270
  H         0.5584080061        1.1709325389       -1.4651110485
  H        -0.6617497242        1.8238543078       -0.3449135564
  H         0.5682236561       -1.0417540506        1.6402498835
  H        -0.6228772046        0.3400375712        1.7422310054
  H         0.9234810911        0.3865460600        2.6168022333
  H        -1.7959582132        0.2099924321       -1.6379274349
  H        -1.4792517718       -2.2639215622       -1.2629042913
  H        -0.1586071958       -2.0139430287       -0.1770537680
