      15
 i =   793800, time =   158760.000, E =       -15.9249799368
  C         0.8826572902        0.3361817914        0.5228837282
  C        -0.5588980817        0.4571925146       -0.0354890605
  C         1.0657889671        1.2267722404        1.7399595688
  C        -1.0544446533       -0.4196633406       -1.1469867372
  C        -0.7611107906       -1.7057409230       -1.2535495311
  H         1.5676304246        0.7557618003       -0.2229139392
  H         1.0404803590       -0.7303586297        0.7738366725
  H        -0.7658246090        1.5529524139       -0.2942214971
  H        -1.1382496276        0.2478914444        0.8233551307
  H         0.2654980400        1.0829661298        2.4652673102
  H         1.1763214452        2.2712328810        1.4251831904
  H         2.0016836969        0.9622741888        2.2192219916
  H        -1.7159972922        0.0987186599       -1.8755750495
  H        -1.0466784871       -2.2785354088       -2.1576534257
  H        -0.1691329784       -2.3516350489       -0.6189483515
