      15
 i =   495900, time =    99180.000, E =       -15.9173128409
  C         0.1027468665        0.0020072321       -0.0162099001
  C        -0.0752853978        0.0152041345       -0.0029298755
  C         0.0099114205        0.0100774586        0.0019296433
  C         0.0660262437       -0.0929813197        0.0645351761
  C         0.0128429507        0.0737355022       -0.0745451170
  H        -0.0152239696        0.0035938662       -0.0003580629
  H        -0.0154644268       -0.0039722015       -0.0088553485
  H        -0.0024367523       -0.0064025660        0.0066968688
  H        -0.0287421942        0.0272277016        0.0026660659
  H        -0.0050736271       -0.0083382668       -0.0005882444
  H        -0.0053401046       -0.0093214299        0.0012211249
  H         0.0008196340        0.0049916032       -0.0077621496
  H         0.0017172324       -0.0005968928        0.0010868237
  H        -0.0082385495       -0.0126481367       -0.0197071539
  H        -0.0382593259       -0.0025766851        0.0528201492
