      15
 i =  1073300, time =   214660.000, E =       -15.9246903831
  C         1.0177005084        0.8024090251        0.2114815923
  C        -0.3814406399        0.0880769851        0.0872722231
  C         0.8314791181        2.0554769091        1.0871864708
  C        -0.3360557247       -1.2802512289       -0.5582712315
  C        -1.4895558420       -1.8534288985       -0.9429069845
  H         1.4409240031        0.8808169907       -0.7998691157
  H         1.6126766407        0.1741104432        0.8317382353
  H        -1.1265252099        0.6628542764       -0.3829557812
  H        -0.7246018235       -0.0822266552        1.1428846192
  H         1.8347222969        2.3161080708        1.4262846383
  H         0.2013869007        1.8572226234        1.9362906004
  H         0.4076207939        2.8886491880        0.5016079159
  H         0.6626329610       -1.7729341946       -0.6869278986
  H        -1.4591548836       -2.8552175741       -1.3870986961
  H        -2.4458495302       -1.4755203301       -0.7348694036
