      15
 i =   229700, time =    45940.000, E =       -15.9167571329
  C         0.3644376786        0.0200681580        0.8075135709
  C        -0.3375363765        0.8079899968       -0.2541792090
  C         0.4619691682        0.7653825430        2.0915918123
  C        -0.6455668201       -0.1783034131       -1.3839256473
  C        -0.1815850095       -1.4513338816       -1.4746227686
  H         1.3762799525       -0.4477706821        0.4815997116
  H        -0.2692357189       -0.8390451863        0.9268068529
  H         0.2236026712        1.6309283306       -0.6029776796
  H        -1.2061025208        1.2205633933        0.2902787269
  H        -0.5874894944        0.9933735537        2.4215017372
  H         0.9990986723        1.6913474901        1.9818842219
  H         0.9272212054        0.1035662786        2.7934111997
  H        -1.3497050976        0.2307373618       -2.1070523009
  H        -0.5606371881       -1.9718609516       -2.3530418417
  H         0.6173489898       -1.8235094250       -0.8129695660
