      15
 i =   790300, time =   158060.000, E =       -15.9274857152
  C         0.7675271780        0.2090160444        0.5843062162
  C        -0.6274668911        0.4998154571       -0.0135540107
  C         1.1630131417        1.2422543474        1.6587711819
  C        -1.1136718776       -0.4047638825       -1.1529063138
  C        -0.6219219084       -1.6328312877       -1.2597594153
  H         1.4177383249        0.0747697655       -0.2895447501
  H         0.7306073718       -0.7676044684        1.1272819984
  H        -0.6924028221        1.4757749349       -0.3494791588
  H        -1.3741070891        0.4345670264        0.8160010605
  H         0.4141140877        1.1274393890        2.4442658483
  H         1.2048462139        2.2841083020        1.3383922649
  H         2.1278887950        0.9826462217        2.0975716692
  H        -1.6904497798        0.1075402531       -1.9116503861
  H        -0.8408688300       -2.2382059682       -2.1204339112
  H        -0.0040247698       -2.0931745281       -0.4961646909
