      15
 i =  1456000, time =   291200.000, E =       -15.9225534431
  C         0.4624746864        0.5046916933        0.8564947876
  C         0.1420451487        0.1546305022       -0.6309221383
  C         1.0788333289        1.9740954627        0.8803526991
  C        -0.4253717426       -1.2291597421       -0.7598437140
  C        -1.6561849218       -1.6148625120       -0.4371204481
  H         1.0951163013       -0.2412037758        1.3136400564
  H        -0.4716283483        0.5485676357        1.4343781273
  H         1.1053904608        0.2999018744       -1.1605623799
  H        -0.6025079751        0.8515638500       -1.0181271136
  H         2.1719924172        1.8929089724        0.8020144943
  H         0.8778594705        2.4325886588        1.8540277767
  H         0.7108951474        2.6016356186        0.0725373683
  H         0.1592667839       -2.0195346387       -1.2630158408
  H        -2.0579921976       -2.5603737206       -0.7180207671
  H        -2.1039731857       -0.9394635489        0.2418546373
