      15
 i =  1168200, time =   233640.000, E =       -15.9166234361
  C         0.4409824061        0.9334853095       -0.0731044156
  C        -0.3975658567       -0.1304961945        0.7238588843
  C         1.0896124152        1.8158058449        0.9590975435
  C        -0.9801592286       -1.1785116846       -0.2440269665
  C        -0.5775965940       -1.6194674993       -1.3932196393
  H        -0.1975420326        1.5962125880       -0.6511055777
  H         1.0986181308        0.4614659533       -0.8251860050
  H        -1.2419769997        0.3512439887        1.1299443225
  H         0.3701292911       -0.5962183728        1.2644051921
  H         0.3088533136        2.2112953179        1.5869170279
  H         1.5639345195        2.6115696726        0.3908938050
  H         1.8255346649        1.2607643849        1.5829187045
  H        -1.8034373599       -1.6759575530        0.2255601840
  H        -1.0836853369       -2.3853240041       -1.9763880988
  H         0.3600453009       -1.3428689110       -1.9276232138
