      15
 i =   243800, time =    48760.000, E =       -15.9129480313
  C         0.5067685234        0.0359642170        1.0269004680
  C        -0.5086654755        0.3831724864       -0.1877166632
  C         0.4927414246        1.0102171890        2.1499778890
  C        -0.2512596434       -0.0959289010       -1.5257807476
  C        -0.5756337979       -1.3785472787       -1.7410380542
  H         1.5257075460       -0.0205782390        0.6496536355
  H         0.2338182453       -0.9730468906        1.4581512516
  H        -0.5312157007        1.4119807568       -0.1329724875
  H        -1.5199113522        0.0256513072        0.2175845170
  H        -0.2880672857        0.7266541100        2.8840572517
  H         0.2457917818        1.9936305778        1.7931871348
  H         1.4346752701        1.0329973121        2.7118156975
  H         0.3372716867        0.5300799311       -2.2204134823
  H        -0.2551437690       -1.9507670915       -2.6216746303
  H        -1.0391463076       -1.8819123139       -0.9569028344
