      15
 i =   976000, time =   195200.000, E =       -15.9197097984
  C        -0.0699637078        0.9124792671        0.9114629380
  C         0.1321212746        0.0980438462       -0.3865380196
  C         1.0950790310        1.9333569833        0.9776607070
  C        -0.9762624330       -0.9178013812       -0.7601122623
  C        -0.6459668061       -2.2040112678       -0.8074838006
  H         0.0190856763        0.1784134035        1.7409699149
  H        -1.0082558069        1.4389114680        1.1017469376
  H         1.1006999518       -0.3273958228       -0.2985868415
  H         0.2746643964        0.7696382257       -1.2446945836
  H         1.1518521249        2.5600431720        0.0605517445
  H         1.9911060226        1.3944325753        1.1527702363
  H         0.9513079899        2.5548120426        1.8648861789
  H        -1.9455083214       -0.5536135633       -1.1602186426
  H        -1.1791920416       -2.9543693900       -1.4724592256
  H         0.3245240486       -2.5836040746       -0.4963957361
