      15
 i =  1412200, time =   282440.000, E =       -15.9272978984
  C         0.1207717636       -0.1503752459        0.1090175622
  C        -0.2127896381        0.3217798822       -0.1331158454
  C         0.0063327482       -0.0138904220       -0.0053840046
  C         0.3342380227       -0.3474741767       -0.0622908515
  C        -0.2049773650        0.1899980234        0.0876872489
  H         0.0048600964       -0.0201103637        0.0136990102
  H        -0.0333307282        0.0130309007       -0.0099101685
  H        -0.0049787851        0.0132096910        0.0057657455
  H        -0.0030690124        0.0004469175        0.0023668894
  H         0.0056012862       -0.0013199238       -0.0040049682
  H        -0.0102087410        0.0025890921       -0.0038188413
  H        -0.0044096899        0.0012989075        0.0028500821
  H         0.0004469443       -0.0001488387        0.0059912983
  H        -0.0025939147       -0.0050644151       -0.0035060583
  H         0.0041070130       -0.0039700288       -0.0053470987
