      15
 i =   961300, time =   192260.000, E =       -15.9190266883
  C         0.5192661601        0.4338236240        0.8252940750
  C         0.0857892664        0.2745594274       -0.6326983759
  C         0.7382946958        1.9774560265        1.1774155616
  C        -0.4810609909       -1.0071830428       -1.0623022953
  C        -1.2205860645       -1.8976775075       -0.4292988230
  H         1.4986649753       -0.1369687501        1.0018930886
  H        -0.1319918650       -0.0163542647        1.5449524171
  H         0.7842561949        0.6689571221       -1.3021373101
  H        -0.7512155053        1.0121816533       -0.6174731866
  H        -0.1063462633        2.6171545300        0.9353997518
  H         1.5650145506        2.4080414256        0.5819864240
  H         0.9064441060        2.1510621622        2.2423597302
  H        -0.2284275914       -1.2197744949       -2.1300701985
  H        -1.5108212052       -2.8535018859       -0.9208645691
  H        -1.6166886207       -1.6639103442        0.5867290865
