      15
 i =  1190300, time =   238060.000, E =       -15.9230560046
  C        -0.0909768308        0.0818836692        0.0403121758
  C         0.1913134057       -0.1771097611       -0.0552220562
  C         0.0010480666        0.0160439704        0.0104276347
  C        -0.1716354639        0.2664542769       -0.0120535771
  C         0.0891390848       -0.1197230875        0.0215294967
  H         0.0128909127        0.0025320757       -0.0088066991
  H        -0.0104431376       -0.0035440859       -0.0181976068
  H        -0.0120416143        0.0107037684        0.0089139240
  H         0.0153255243       -0.0280943916        0.0089300994
  H        -0.0067882939       -0.0078870987       -0.0047437429
  H         0.0012578582       -0.0069862376        0.0014227726
  H        -0.0008099390       -0.0002148531       -0.0037883247
  H        -0.0259052167       -0.0290648887        0.0102066035
  H        -0.0007709917       -0.0076292453        0.0003152048
  H         0.0083966355        0.0026358889        0.0007540952
