      15
 i =   217700, time =    43540.000, E =       -15.9263505970
  C        -0.0205870947        0.0049289889        0.0251960604
  C         0.0956904123       -0.0099647000       -0.0442753854
  C        -0.0182687704       -0.0161828341       -0.0056607626
  C        -0.0806736027       -0.0100733879        0.0362420968
  C         0.0482365841       -0.0033053976        0.0040116659
  H        -0.0048198625       -0.0000722935       -0.0085978016
  H        -0.0043226056        0.0003181307       -0.0067859928
  H        -0.0162775211       -0.0120698934        0.0014170659
  H        -0.0129368572        0.0164282370        0.0141052321
  H         0.0085699774        0.0093498606       -0.0014672032
  H        -0.0019404794        0.0065261337        0.0033282347
  H         0.0029976348        0.0020582437       -0.0003969960
  H         0.0103392286        0.0006849408        0.0059928638
  H        -0.0060083456       -0.0012576584       -0.0126328869
  H         0.0000013020        0.0126316295       -0.0104761911
