      15
 i =   577400, time =   115480.000, E =       -15.9290362607
  C        -0.1519104333        0.4842570018        0.8856273239
  C         0.6598091620        0.1187411797       -0.3443619502
  C         0.6891472537        0.8377979714        2.1212305680
  C        -0.1252779565       -0.6275146028       -1.4548388308
  C        -1.3997605309       -0.8831222666       -1.4198729335
  H        -0.8414292742       -0.3242098770        1.2010318914
  H        -0.7123312149        1.3605668613        0.5649576385
  H         1.5792874193       -0.4563615954       -0.0674041246
  H         0.9571663119        1.0382273464       -0.8547071305
  H         0.0429138939        1.2824396096        2.8524754224
  H         1.4987036051        1.5196746471        1.8377925484
  H         1.1012182093       -0.0768139124        2.5543228326
  H         0.4460280389       -1.0152968153       -2.3029347454
  H        -1.9126812067       -1.4344664255       -2.1616902832
  H        -2.1110971861       -0.7045234427       -0.6211619998
