      15
 i =   343400, time =    68680.000, E =       -15.9219213671
  C        -0.2606258845       -0.1542778010        1.2334667821
  C         0.6684478553       -0.6532617113        0.2113478080
  C        -0.1074689148        1.3809090229        1.3315828516
  C         0.2948893339       -0.2176752826       -1.1487919792
  C        -0.8733203612       -0.4202688802       -1.7612117497
  H         0.0369527582       -0.5452418961        2.1945161858
  H        -1.3225746731       -0.4218023286        0.9962560828
  H         0.7227105031       -1.7346876518        0.2122878241
  H         1.7665380305       -0.3146219248        0.3613896237
  H        -0.3445914216        1.6302871694        2.3635979992
  H        -0.7646087983        1.9813276029        0.7092634486
  H         0.9185522654        1.6275613879        1.0949187248
  H         1.0315419887        0.2867100970       -1.7369112982
  H        -0.9671429721       -0.2675683988       -2.8191794236
  H        -1.6243849739       -1.1154785387       -1.3101751231
