      15
 i =  1438300, time =   287660.000, E =       -15.9224153317
  C         0.7372710641        0.5721305801        0.9129349634
  C        -0.0040365000        0.0946703444       -0.3912887251
  C         1.0715536418        2.0513845559        0.7710610887
  C        -0.4928617801       -1.3234110234       -0.5027095244
  C        -1.7024613643       -1.6190658243       -0.8556488022
  H         1.6513448473        0.0745812370        1.2286875605
  H        -0.0384313675        0.4482373651        1.7548347593
  H         0.8447556610        0.1993557154       -1.0828772921
  H        -0.7331660156        0.7745530613       -0.7394718426
  H         1.8333982885        2.1798929244       -0.0070879353
  H         1.4430075024        2.4846000640        1.6958724527
  H         0.1567225625        2.6018879860        0.5186157411
  H         0.1401000735       -2.1401062354       -0.2080334412
  H        -1.9980631460       -2.6363508344       -0.8545329840
  H        -2.5066287763       -0.9569676089       -1.0498040429
