      15
 i =    47200, time =     9440.000, E =       -15.9278414158
  C         0.9166911615        0.5974117440        0.8231403831
  C         0.3574159932       -0.7648362676        0.3494481349
  C        -0.1823529766        1.5185222041        1.3392985296
  C        -0.7424445486       -0.5866295506       -0.6675827838
  C        -0.6808265296       -0.9121749217       -1.9527316174
  H         1.4276777218        1.0602249858       -0.0678227661
  H         1.6459757688        0.4308883236        1.6388290770
  H        -0.1629930010       -1.2639721854        1.1858053577
  H         1.1233912760       -1.4597873318        0.0155102728
  H         0.3474885405        2.4702148587        1.5176658902
  H        -0.7097210731        1.1941592357        2.2317064118
  H        -0.8637318427        1.8175554479        0.5427925470
  H        -1.6112963773       -0.0943042208       -0.1719307262
  H        -1.3657657109       -0.7165251165       -2.7782469172
  H         0.2587502897       -1.3213587309       -2.3483794467
