      15
 i =  1460500, time =   292100.000, E =       -15.9215410568
  C         0.3503210622        0.5660758496        0.7975768235
  C         0.2114727023        0.1322762926       -0.7631601568
  C         1.0778724056        1.9126799230        0.9724725932
  C        -0.4284818357       -1.2438869105       -0.8030938296
  C        -1.6124608978       -1.5645893521       -0.3449919114
  H         0.8930411070       -0.1497327761        1.3664196706
  H        -0.6278499190        0.6196306974        1.2455578976
  H         1.1222494200       -0.0337650176       -1.2720676484
  H        -0.3746495913        0.9367254481       -1.2218965936
  H         2.1550542781        1.8193395145        0.7338605528
  H         1.0121737912        2.2919425660        1.9971734154
  H         0.7044282281        2.6958107531        0.3534300847
  H         0.3414243829       -2.0069298394       -0.8507013221
  H        -1.8905066566       -2.6206755238       -0.1708280031
  H        -2.4143272811       -0.8425753399       -0.0245386038
