      15
 i =   257400, time =    51480.000, E =       -15.9270909766
  C        -0.0809294494        0.0375372290        1.3214606109
  C        -0.0944076219        0.3612546503       -0.2017174694
  C         0.6420164475        1.0843305982        2.0826835184
  C        -0.7603018116       -0.6514570675       -1.1460979643
  C        -0.0873179362       -0.9500306149       -2.2463367125
  H         0.3139436593       -0.9502129948        1.5325082009
  H        -1.1698496814        0.1353570573        1.6522863353
  H         0.9647518683        0.5065491993       -0.5453992888
  H        -0.5826893053        1.3126912591       -0.3353767453
  H         0.0459768678        1.9740257566        2.2199178537
  H         1.5756364457        1.3388842430        1.5570090342
  H         0.8512324826        0.7795437638        3.0956167552
  H        -1.6935488883       -1.1215505930       -0.8881650845
  H        -0.5013201864       -1.6556213944       -3.0236072107
  H         0.8745766797       -0.5522079118       -2.5267379273
