      15
 i =   673400, time =   134680.000, E =       -15.9228202840
  C         0.0464832421       -0.0586049289       -0.0165027577
  C        -0.0526472046        0.0450599248        0.0020077335
  C         0.0117538522       -0.0021200965        0.0002192829
  C        -0.0471768962       -0.0095430222        0.0904844534
  C         0.0710993792        0.0125592750       -0.0481317343
  H         0.0112343827       -0.0004231667        0.0098305126
  H        -0.0148083597        0.0263248125       -0.0106983575
  H         0.0063830148       -0.0017804974       -0.0030556965
  H        -0.0094236089       -0.0057432877       -0.0110409287
  H        -0.0011016663       -0.0079759298       -0.0038635728
  H        -0.0015531755       -0.0020987004       -0.0066636863
  H        -0.0029808654        0.0072574808        0.0049866014
  H        -0.0093274090        0.0174268072       -0.0011873713
  H        -0.0051459242       -0.0171897754       -0.0068469909
  H        -0.0027887612       -0.0031488955        0.0004625122
