      15
 i =   353500, time =    70700.000, E =       -15.9282327365
  C         0.0655143993        0.0076595222        0.0261478931
  C        -0.0671414985       -0.0311998501       -0.0290058643
  C        -0.0058769021       -0.0086894820       -0.0041905390
  C         0.1108826337        0.0692084946        0.0448362864
  C        -0.0451824196       -0.0577614966       -0.0128778476
  H         0.0044245499        0.0043780428       -0.0014354544
  H        -0.0052330406        0.0092937393       -0.0079180756
  H        -0.0103758140       -0.0098341587        0.0020335380
  H        -0.0264008210        0.0036072863       -0.0151299602
  H        -0.0007377087        0.0019162430        0.0001986628
  H        -0.0008579861        0.0015356880        0.0008309216
  H        -0.0060268568       -0.0002754380        0.0019250310
  H        -0.0101509721        0.0105564103       -0.0095418601
  H        -0.0055587081        0.0013411245        0.0052436517
  H         0.0027211447       -0.0017361258       -0.0011163834
