      15
 i =   831000, time =   166200.000, E =       -15.9170787695
  C         0.0316513082        0.0010373122       -0.0266651833
  C        -0.0792689691       -0.1025849944        0.0520481151
  C        -0.0147042208        0.0179112162       -0.0116058254
  C         0.0677910822        0.0878491297       -0.0213014677
  C        -0.0370285759       -0.0465218273       -0.0064991653
  H        -0.0199473999        0.0111190075        0.0196665116
  H        -0.0037283186        0.0038904143       -0.0100003195
  H         0.0107965213        0.0460020460       -0.0193407693
  H         0.0346406338        0.0002416439       -0.0085661885
  H         0.0026428361       -0.0005191762        0.0011316835
  H         0.0033849624       -0.0042748593        0.0043200345
  H        -0.0004710903       -0.0042417136       -0.0040343426
  H        -0.0036672935       -0.0122088480        0.0082963532
  H         0.0065757096        0.0096139049        0.0141328987
  H         0.0013328145       -0.0073132559        0.0084176650
