      15
 i =   277500, time =    55500.000, E =       -15.9304123975
  C         0.0029974688        0.0244932846       -0.0027001890
  C        -0.0459815397        0.0298063417       -0.0061761041
  C        -0.0153188704       -0.0108987185        0.0016564778
  C        -0.0165603893       -0.0161861623        0.0359054421
  C         0.0277491868        0.0046590331       -0.0380182414
  H         0.0101867585       -0.0265708187        0.0108946512
  H         0.0161272983        0.0017090216       -0.0100038353
  H         0.0101736501        0.0012897640       -0.0033368867
  H         0.0129827714       -0.0142060103        0.0034414120
  H         0.0038976228       -0.0004512277       -0.0045365488
  H         0.0049369417        0.0047926271       -0.0030826517
  H        -0.0033946225       -0.0016760975       -0.0015213319
  H        -0.0070595410       -0.0003131618       -0.0008930566
  H        -0.0000242620        0.0020872675        0.0147892419
  H        -0.0007124735        0.0014648573        0.0035816206
