      15
 i =   262300, time =    52460.000, E =       -15.9291767780
  C        -0.3040879145        0.1144988614        1.2125548749
  C         0.4352372011        0.0571162821       -0.1471354727
  C         0.3819085027        1.2306528152        2.0051986304
  C        -0.1519925064       -0.9512379805       -1.0607394159
  C        -0.6913699643       -0.6002032696       -2.2094256972
  H        -0.1333752342       -0.8808297199        1.7552514136
  H        -1.3334843904        0.3879102771        1.1787159583
  H         1.4991924424       -0.1201085214        0.0204904308
  H         0.3036515579        1.0261312266       -0.6754660906
  H         0.4940593978        2.1433229569        1.4101559671
  H         1.3471820063        0.9928010744        2.4485480843
  H        -0.2363145791        1.4339180382        2.8812657294
  H        -0.0515176918       -1.9799145184       -0.6972617129
  H        -1.0682497443       -1.2884744612       -2.9094682517
  H        -0.7458130742        0.4198138490       -2.5605113008
