      15
 i =   469400, time =    93880.000, E =       -15.9237472272
  C        -0.0316390783       -0.0263811262        1.3031183280
  C         0.1559124714       -1.1027919841        0.1726199455
  C         0.5782764512        1.3746823335        1.1580962807
  C        -0.1090267018       -0.6799812195       -1.2445799045
  C        -0.9184425103        0.3295681952       -1.5540118589
  H         0.4754000923       -0.4536361701        2.1797962581
  H        -1.1474794834       -0.1085589151        1.5271768078
  H        -0.4275606146       -1.9574499857        0.4664383718
  H         1.2303152140       -1.4202149139        0.2423035861
  H        -0.2064113146        2.0882778914        0.8812623661
  H         1.3581699007        1.5366354128        0.3996847679
  H         0.9490972711        1.7118959421        2.1321039775
  H         0.3106403864       -1.3118071943       -2.0008963852
  H        -1.1331450439        0.5344950385       -2.5847501927
  H        -1.3978675799        0.9874140290       -0.8059584386
