      15
 i =   883300, time =   176660.000, E =       -15.9155013681
  C         0.0954813439        1.3383005119        0.7016525138
  C        -0.8185717204        0.1710369796        0.3086396579
  C         1.5930295574        0.8648124755        1.0043697413
  C        -0.3142390301       -0.9644808138       -0.5332235449
  C        -0.9604258738       -1.4875479856       -1.5785787812
  H        -0.2108325668        1.8526870051        1.5931935629
  H         0.3072721885        1.9534071027       -0.1967277846
  H        -1.7668455777        0.5537519395       -0.0547206803
  H        -1.0714111177       -0.4208038024        1.2193184993
  H         2.2238838852        1.6468133239        1.4208457703
  H         2.0007487747        0.5501828773        0.0420666780
  H         1.5833599057       -0.0040441558        1.6793648060
  H         0.3230910887       -1.5215486400        0.0643094610
  H        -0.6654288395       -2.3858568388       -2.0080333383
  H        -1.7616994995       -0.9395695341       -2.1281834310
