      15
 i =  1008800, time =   201760.000, E =       -15.9242168919
  C         0.9041337145        0.6417503992        0.4620162216
  C        -0.4409365249        0.3392876950       -0.2924089508
  C         0.8771499525        2.0239188751        1.1283001245
  C        -0.3587752131       -1.1489514425       -0.6601892540
  C        -1.3419917118       -2.0310602505       -0.7232727657
  H         1.8035659741        0.4462606553       -0.0984853151
  H         0.9381636691       -0.1053907131        1.3030019200
  H        -0.6766101296        0.8917255015       -1.2369151714
  H        -1.3113204111        0.5396725859        0.3661774071
  H         0.0529319642        2.1089692924        1.8233204748
  H         0.7527810568        2.7726006365        0.3450945118
  H         1.7868103791        2.1901206603        1.7010831853
  H         0.4955214444       -1.4868540699       -1.2634775553
  H        -1.0623898801       -2.9891462445       -1.1427117354
  H        -2.3452692307       -1.9249827219       -0.3037114365
