      15
 i =  1087100, time =   217420.000, E =       -15.9267814157
  C         0.9380913610        0.6799516659        0.4271653230
  C        -0.4381792220        0.0653511385        0.2205637381
  C         0.9279720997        2.1297652617        0.9299277723
  C        -0.4164145995       -1.2710561837       -0.4363184501
  C        -1.3884443957       -1.8029763656       -1.2096879531
  H         1.3810261336        0.7633554194       -0.5987305512
  H         1.5527118802        0.0134550521        1.0889610441
  H        -1.1011007037        0.6708844161       -0.3737229811
  H        -0.8291243358       -0.0097125096        1.1941966525
  H         0.1557189913        2.7263643627        0.4940215836
  H         1.9246970401        2.5831862332        0.8528387095
  H         0.7350788783        2.0614867298        2.0255409132
  H         0.4306811891       -1.9558089426       -0.2500323516
  H        -1.2995637812       -2.8221483234       -1.6112807041
  H        -2.3186699620       -1.3031760977       -1.5334329442
