      15
 i =   260700, time =    52140.000, E =       -15.9188849786
  C        -0.1914215413        0.1028858413        1.3143920995
  C         0.1523752700        0.1447298390       -0.1416788784
  C         0.5130970784        1.2407951218        2.0821700719
  C        -0.4440630211       -0.9206705309       -1.0340914704
  C        -0.3583419576       -0.7318293678       -2.3749154489
  H        -0.0401367478       -0.9302845842        1.6718934082
  H        -1.2311318459        0.2968600198        1.3210603569
  H         1.2474386303        0.1043564748       -0.3686641549
  H        -0.2013083350        1.1306788647       -0.4145927330
  H         0.2035573777        2.1348467708        1.5200102201
  H         1.5752852473        1.0883055310        1.8991171301
  H         0.3558600644        1.3560781968        3.1564286891
  H        -0.8966188025       -1.8031642055       -0.5748083763
  H        -0.9482393953       -1.2906834103       -3.1184786047
  H        -0.0126179469        0.2253145651       -2.7815155081
