      15
 i =  1338000, time =   267600.000, E =       -15.9240005637
  C         0.3399780099        1.0510085757       -0.1460509228
  C         0.1691864982       -0.3394811704        0.4754188385
  C         1.0870689638        2.0092400278        0.7719759737
  C        -0.3925902814       -1.2035096802       -0.6172060778
  C        -1.5931360473       -1.7184897000       -0.5411088900
  H        -0.6590876670        1.4497882648       -0.3382380279
  H         0.8395648902        0.9586481841       -1.0947482645
  H        -0.3568460279       -0.2721784642        1.3504684135
  H         1.1965413958       -0.7404490030        0.7218089858
  H         1.9175917877        1.3921325802        1.1561429192
  H         0.4587916620        2.1839975674        1.6392273376
  H         1.4975414137        2.9446210180        0.4164720398
  H         0.1670549395       -1.4513745518       -1.5132553244
  H        -1.9883102850       -2.1952089266       -1.4602670251
  H        -2.2922200159       -1.5150710349        0.2751612315
