      15
 i =  1000400, time =   200080.000, E =       -15.9255031226
  C        -0.0033771819        0.0564756133       -0.0392191654
  C         0.0061719553       -0.0270236045        0.0025698567
  C         0.0013670328       -0.0185423827        0.0246022176
  C         0.0017227191       -0.0221182581        0.0662898070
  C         0.0027980871        0.0070672487       -0.0656580084
  H         0.0162654585       -0.0075813364       -0.0054271016
  H        -0.0078934857       -0.0143671604        0.0052582072
  H        -0.0083650632       -0.0009275485        0.0083320048
  H        -0.0114839725       -0.0025072846        0.0076237149
  H         0.0051666248       -0.0041996828       -0.0078702778
  H        -0.0004364037        0.0099429146       -0.0140935269
  H         0.0016018813        0.0019699383        0.0000722161
  H        -0.0065711627        0.0052875317        0.0054822372
  H        -0.0068919126        0.0176805297        0.0163043126
  H         0.0099254233       -0.0011565181       -0.0042664941
