      15
 i =   422900, time =    84580.000, E =       -15.9265616426
  C         0.9547233315        0.6997691050        0.6423720755
  C         0.5647464936       -0.6884241023        0.1386059762
  C        -0.0337828680        1.2738888799        1.6316804283
  C        -0.7842151967       -0.7065666643       -0.6215202725
  C        -1.0283067999       -0.7038174047       -1.9509537387
  H         1.0859413034        1.5095220874       -0.1696623703
  H         1.9390375957        0.6188124662        1.1700087744
  H         0.3776028300       -1.3632264557        0.9764270316
  H         1.3549601941       -1.1661657098       -0.3995648404
  H        -0.0130071409        0.5707191628        2.4655484108
  H        -1.0384595683        1.3487865367        1.2368526968
  H         0.2454913140        2.2619254197        1.9989736896
  H        -1.6577097030       -0.7217987935        0.0126855547
  H        -2.0612714665       -0.6057864096       -2.2878855992
  H        -0.1985992225       -0.6044794964       -2.6251076900
