      15
 i =  1178800, time =   235760.000, E =       -15.9262157120
  C        -0.0137252985       -0.0162978911       -0.0316602464
  C         0.0325884143        0.0112999350        0.0406879002
  C        -0.0062458612        0.0128460182        0.0251998695
  C        -0.0178573866        0.0062533105       -0.0194466259
  C        -0.0067832501       -0.0009297562       -0.0004872989
  H         0.0071385106        0.0069469725       -0.0200190562
  H        -0.0112224296       -0.0019173466        0.0052935480
  H         0.0003872399        0.0091628110        0.0021804385
  H        -0.0057458510       -0.0040226953       -0.0017344376
  H         0.0006634522       -0.0044369171       -0.0070234990
  H        -0.0010332911       -0.0025627245       -0.0030406042
  H         0.0037889990        0.0019083403        0.0068758581
  H         0.0078131159       -0.0094837098        0.0125234388
  H         0.0031690280        0.0001567447       -0.0091563517
  H         0.0070646084       -0.0089230916       -0.0001929333
