      15
 i =    85200, time =    17040.000, E =       -15.9166263588
  C        -0.3357210571        0.2150332642        1.1504724073
  C         0.2284391607        0.2967328600       -0.2148951043
  C         0.2835612119        1.2336764130        2.1759352735
  C        -0.5380269500       -0.6020999546       -1.1551057798
  C         0.0217129702       -1.2295383996       -2.1832736210
  H        -0.1176042862       -0.7923870260        1.4349412375
  H        -1.3598602611        0.3146957213        1.2670804033
  H         1.2720639552        0.0388313235       -0.0836095089
  H         0.1182369571        1.3658751351       -0.5570955434
  H         1.2561044400        0.9364248472        2.5514266689
  H        -0.3708920568        1.2910321268        3.0629203265
  H         0.4566712266        2.2403428126        1.7924094690
  H        -1.5376801716       -0.9258195573       -0.8437060113
  H        -0.6054266179       -1.7836168826       -2.9225079083
  H         1.0796608202       -1.3012533174       -2.5245944819
