      15
 i =   237900, time =    47580.000, E =       -15.9278508106
  C         0.3799643529       -0.0057803689        0.9008970954
  C        -0.5188366214        0.6053567896       -0.1580576305
  C         0.5402760709        0.9387968974        2.1400713119
  C        -0.4733979994       -0.1724576909       -1.4178316305
  C        -0.2761263256       -1.4266383860       -1.6773239482
  H         1.3565954020       -0.3140572474        0.4656432540
  H        -0.0619389039       -0.9074273628        1.3059530541
  H        -0.1755625342        1.6263516661       -0.4172911336
  H        -1.5867118905        0.6345323053        0.1057649781
  H        -0.4375690549        1.2468521026        2.5178577252
  H         1.1234949767        1.8159099527        1.9062514025
  H         1.0705144380        0.4333432136        2.9625646616
  H        -0.4590867381        0.4962573508       -2.3106451698
  H        -0.1874182893       -1.8196743066       -2.6876442194
  H        -0.3546916155       -2.1315016491       -0.8454271821
