      15
 i =   393200, time =    78640.000, E =       -15.9212431745
  C        -0.0024391228       -0.0274531003       -0.0370822651
  C         0.0251337412        0.0070367952        0.0283376593
  C         0.0242545791        0.0109425548        0.0276151532
  C         0.0339170253        0.0533121658       -0.0412182085
  C        -0.0236081872       -0.0322130186        0.0169056899
  H         0.0036452789        0.0045424977       -0.0078412250
  H         0.0043146811       -0.0007910963       -0.0054787945
  H        -0.0262527630       -0.0284720378        0.0267116655
  H        -0.0241809180        0.0172488508       -0.0098823070
  H         0.0043129562        0.0003312797        0.0068385050
  H         0.0000799948        0.0054027199        0.0055320022
  H        -0.0115203725       -0.0082067399       -0.0055185371
  H        -0.0037643289       -0.0018859298        0.0114945009
  H        -0.0064147638        0.0013363168       -0.0081206153
  H         0.0025221995       -0.0011312581       -0.0082932234
