      15
 i =   338100, time =    67620.000, E =       -15.9196221719
  C        -0.3315290583        0.1199166343        1.3394008029
  C         0.2533793392       -0.7937082716        0.1965770221
  C         0.4423012037        1.4851104510        1.4663866714
  C        -0.6367595578       -0.4464856739       -0.9736191877
  C        -0.0645415674       -0.4807948598       -2.1846002082
  H        -0.2345868685       -0.3783594190        2.2469978878
  H        -1.4483813262        0.2906297816        1.1655480570
  H         0.0658305016       -1.8533671093        0.5349566928
  H         1.2982855757       -0.5647942720       -0.0208581898
  H         1.3343552051        1.3308134327        2.0827166961
  H        -0.1531682285        2.2627232784        1.9405309241
  H         0.6804726623        1.8804789578        0.4846149326
  H        -1.6601301307       -0.1430243726       -0.7421862030
  H        -0.7127556963       -0.3803471813       -3.0565533879
  H         0.9869741187       -0.7059348458       -2.3046869794
