      15
 i =   135800, time =    27160.000, E =       -15.9214107026
  C         0.1446811626        0.9194212049        0.6934980286
  C         0.3833687991       -0.5400935386        0.1066917586
  C         0.3566917551        0.8070155720        2.1919968894
  C        -0.0496252454       -0.4383163516       -1.3631849464
  C        -1.1570416267       -0.8380383915       -1.8537553061
  H        -0.8508140405        1.3811768730        0.5101683427
  H         0.9089988902        1.5478656567        0.2134297461
  H        -0.2614446639       -1.1859119463        0.5930196035
  H         1.3792528293       -0.9232317203        0.2338698902
  H        -0.1369786268       -0.0008079486        2.7489869944
  H         0.0473738134        1.7472524966        2.6518317668
  H         1.4414049953        0.7236759921        2.3371017735
  H         0.7042790633        0.0036117570       -2.0058390849
  H        -1.3417359323       -0.6112598158       -2.8819246441
  H        -1.9148567959       -1.2527780964       -1.2485613879
