      15
 i =  1348900, time =   269780.000, E =       -15.9300570968
  C         0.1041602341        0.9701440429       -0.0251822725
  C         0.4992575232       -0.4176275932        0.3557457570
  C         1.0017898417        1.9971643701        0.6980794096
  C        -0.4318369361       -1.4658118583       -0.2020642000
  C        -1.5499621599       -1.3067815526       -0.8836843615
  H        -0.8666620804        1.1702279598        0.3713963291
  H         0.1287588309        1.1276586479       -1.0771067608
  H         0.4285044230       -0.5001090029        1.4439343661
  H         1.5860376051       -0.6291532338        0.0982052178
  H         2.0623612764        1.8913641960        0.5480835616
  H         0.7726667088        1.9052951107        1.7715526822
  H         0.6670007858        2.9840716586        0.3792060767
  H        -0.1334903705       -2.5206075546        0.0594170191
  H        -2.2258692012       -2.1123595400       -1.1962646204
  H        -1.7924196007       -0.3031341830       -1.2440478122
