      15
 i =  1152100, time =   230420.000, E =       -15.9242305994
  C         0.2356828283        1.1016439779        0.0217220910
  C        -0.0800093838       -0.2996781944        0.6123084184
  C         1.1101913085        1.9443589216        0.9510670803
  C        -0.9504886181       -0.8860810913       -0.5233055126
  C        -0.7116222436       -2.0475332394       -1.1205965068
  H        -0.6161199857        1.7544767326       -0.1156577101
  H         0.7117384333        0.9230098741       -0.9865131726
  H        -0.7836450156       -0.2296243670        1.4778226501
  H         0.8117452791       -0.8849818983        0.8507038821
  H         0.7153817776        1.8011679647        1.9794860723
  H         1.0850798264        3.0130601160        0.7022621281
  H         2.1407493948        1.6536308532        0.9556173111
  H        -1.9212711255       -0.4152032311       -0.6993365458
  H        -1.4287284443       -2.3165615686       -1.9064276593
  H         0.1461642853       -2.7102067473       -1.0833382970
