      15
 i =   986600, time =   197320.000, E =       -15.9200701708
  C        -0.0915388988        0.0006880572        0.0539547248
  C         0.0867500107       -0.0200842886        0.0009051720
  C        -0.0014244637       -0.0188779743        0.0004692913
  C        -0.1507079560        0.0348682683       -0.0629197787
  C         0.0828258636       -0.0017483908        0.0950483949
  H         0.0092160687        0.0083857885        0.0063390950
  H         0.0062171455       -0.0107429327        0.0017685921
  H         0.0123493703        0.0244796032       -0.0400206467
  H         0.0300120176       -0.0126849797       -0.0081704453
  H         0.0103885030        0.0144686428        0.0012279333
  H        -0.0038917401        0.0067479444       -0.0118536512
  H        -0.0006384719       -0.0079658878        0.0043563663
  H         0.0035173490       -0.0014633141       -0.0098963053
  H        -0.0005746999       -0.0083284573       -0.0076569401
  H         0.0074999021       -0.0077420791       -0.0235518025
