      15
 i =  1141400, time =   228280.000, E =       -15.9243093646
  C         0.1261234434        1.2804819663        0.0550874987
  C        -0.2603040537       -0.1393499179        0.4121126842
  C         1.2464498454        1.7797632290        1.0304959023
  C        -0.9682149977       -0.9579219140       -0.6192753683
  C        -0.5636423094       -2.1213191144       -0.9863379079
  H        -0.7528199384        1.8496126336        0.2303216627
  H         0.3998312159        1.3471554417       -1.0142403452
  H        -1.0169172354       -0.1592914694        1.2964368017
  H         0.6083347981       -0.6378056178        0.7698106531
  H         1.0160420002        1.3871056356        1.9999571164
  H         1.2725314035        2.8649804443        1.0560051680
  H         2.2448310097        1.4947108955        0.6697986530
  H        -1.7694378724       -0.4522595231       -1.1378680583
  H        -1.0940636465       -2.7943016928       -1.6518370646
  H         0.2309075395       -2.6560367260       -0.4585340281
