      15
 i =   275100, time =    55020.000, E =       -15.9214909240
  C         0.0239031701       -0.0206077454       -0.0036630698
  C        -0.0486670374        0.0634391021       -0.0117699301
  C        -0.0064920305        0.0089221096       -0.0115561182
  C        -0.0058374208       -0.0002052613       -0.0440560360
  C         0.0091986325       -0.0059637915        0.0117624041
  H        -0.0079275670        0.0100527242       -0.0026827645
  H        -0.0056169197        0.0087841188        0.0036681029
  H         0.0604287327       -0.0204117275        0.0149375446
  H        -0.0068058210       -0.0349488641        0.0215159050
  H        -0.0070969375       -0.0027125346        0.0010862723
  H         0.0076374846       -0.0082355863        0.0000659375
  H        -0.0041762722        0.0061258577        0.0050763810
  H        -0.0049361448        0.0003052822       -0.0005450238
  H         0.0082123280        0.0177021233        0.0033946962
  H        -0.0118241972       -0.0222458074        0.0127656989
