      15
 i =   777000, time =   155400.000, E =       -15.9136976106
  C        -0.0188599639        0.0188119732       -0.0125088088
  C         0.0164576464        0.0374444557       -0.0103838737
  C         0.0140555681       -0.0088744650       -0.0037696803
  C         0.0360229135        0.0364854000        0.0205657764
  C        -0.0565125537       -0.0715099989       -0.0089953000
  H         0.0100410804        0.0065307365       -0.0048665992
  H        -0.0168899635        0.0043148395        0.0045666589
  H         0.0154562304        0.0003239736        0.0089983364
  H        -0.0199115321       -0.0346742355        0.0440193228
  H         0.0002995945        0.0015682656        0.0033421720
  H         0.0027876950       -0.0123364977       -0.0076593839
  H        -0.0068420367        0.0029966285        0.0049375295
  H         0.0062429906        0.0057025115       -0.0262780264
  H         0.0056003855        0.0002899848       -0.0203626473
  H         0.0120519455        0.0129264285        0.0083945236
