      15
 i =  1485200, time =   297040.000, E =       -15.9237675272
  C         0.0849329749        0.9669209454        0.7331766586
  C         0.2249730320       -0.0599175490       -0.4242611792
  C         1.2840439607        1.9116498577        0.8986476260
  C        -0.9879994813       -0.8352954116       -0.6494645138
  C        -1.0592397394       -2.1743181265       -0.6223881048
  H         0.0077231161        0.3555914630        1.6901154103
  H        -0.8742723622        1.5322267437        0.6734410341
  H         1.0652726897       -0.7038721594       -0.1228348806
  H         0.5253354049        0.5507981955       -1.3531413097
  H         1.2844208889        2.6732263380        0.0939721066
  H         2.2578991027        1.4193727788        0.8220758391
  H         1.2736600997        2.4126031891        1.8549726075
  H        -1.8493694819       -0.1997052521       -0.6947589135
  H        -2.0083557484       -2.7123943890       -0.9634496645
  H        -0.1414882545       -2.6953392968       -0.7604128417
