      15
 i =   495100, time =    99020.000, E =       -15.9159562377
  C        -0.0588730813       -0.0325981201       -0.0255828633
  C         0.0316919526       -0.0322519049        0.0177634545
  C        -0.0102323057        0.0052583581       -0.0004064832
  C        -0.0757407706        0.0706927713        0.0132508108
  C         0.0411137031       -0.0422241723        0.0074297936
  H         0.0174258059       -0.0059046379       -0.0034108495
  H         0.0235868437        0.0252598162       -0.0018085226
  H         0.0028865331       -0.0075393732       -0.0042228815
  H         0.0087264843       -0.0082244121       -0.0162002802
  H        -0.0047130228        0.0047980897        0.0074473571
  H         0.0040725134        0.0043708735       -0.0011117978
  H        -0.0013912170        0.0051050050        0.0023088022
  H         0.0169280922        0.0022494556       -0.0104985975
  H         0.0090832726        0.0072453646        0.0055171514
  H        -0.0045648033        0.0037628864        0.0095249059
