      15
 i =  1088100, time =   217620.000, E =       -15.9227071882
  C         0.0440332296       -0.0056884475        0.0416902878
  C        -0.0516994855        0.0154814179       -0.0654554355
  C        -0.0108711200        0.0042021940        0.0065800166
  C         0.0696106215        0.0353293086       -0.0567614420
  C        -0.0580525451        0.0014866636        0.0527221786
  H        -0.0097171550        0.0008817116        0.0138538492
  H        -0.0149845509       -0.0050023159        0.0009644577
  H        -0.0017108564        0.0001233926       -0.0147482756
  H        -0.0016602794       -0.0185038891        0.0085983745
  H         0.0116742973       -0.0053011029       -0.0013707398
  H         0.0064042739        0.0034384974       -0.0053041838
  H         0.0010354438       -0.0006219369        0.0015850485
  H         0.0077723833       -0.0085559268        0.0082049926
  H         0.0069722110       -0.0099988184       -0.0046885416
  H         0.0011935320       -0.0072707484        0.0141294131
