      15
 i =  1015600, time =   203120.000, E =       -15.9197338948
  C        -0.0411818488       -0.0213794280        0.0494604485
  C         0.0466988378        0.0043454496       -0.0591017803
  C         0.0008626361       -0.0052051807        0.0167322173
  C        -0.0373422703        0.0584165056       -0.0229839050
  C         0.0280901748       -0.0370326949        0.0511178484
  H        -0.0147395632        0.0015795990        0.0135640649
  H         0.0172581912        0.0080455223       -0.0151479465
  H        -0.0044160557       -0.0033691653        0.0089469779
  H         0.0107896877       -0.0107319285       -0.0166027614
  H        -0.0004085315        0.0003621148       -0.0000729325
  H         0.0081561046       -0.0001161382       -0.0125652308
  H         0.0022592053       -0.0006844395       -0.0087022741
  H        -0.0215622118        0.0086395181        0.0102074388
  H        -0.0062001499       -0.0089520217       -0.0065428434
  H         0.0117357938        0.0060822873       -0.0083093217
