      15
 i =    15900, time =     3180.000, E =       -15.9218914162
  C        -0.0017137673       -0.0200420988       -0.0136874033
  C        -0.0499440028        0.0299204830        0.0351884833
  C         0.0261177652        0.0036871110        0.0071161267
  C         0.0109407847       -0.0049163562       -0.0062106900
  C         0.0048507365        0.0161771122       -0.0059843725
  H        -0.0001132799        0.0010713785        0.0094326675
  H         0.0070628930       -0.0043411656       -0.0067999592
  H         0.0121119760       -0.0141022622        0.0001698318
  H        -0.0008583085       -0.0024998944       -0.0132562011
  H        -0.0053152283        0.0050830846       -0.0050935194
  H        -0.0119538929       -0.0023013004       -0.0003833584
  H        -0.0015832298       -0.0037750631       -0.0028405977
  H         0.0037744602        0.0076532136        0.0126117714
  H         0.0042201610       -0.0118478522        0.0056479505
  H         0.0024029330        0.0002336098       -0.0159107296
