      15
 i =   302000, time =    60400.000, E =       -15.9184931700
  C        -0.0061437263       -0.0008896130       -0.0164168921
  C         0.0049949926        0.0000683326        0.0066584621
  C        -0.0012957078        0.0357438806       -0.0049231656
  C         0.0174745725        0.0060567831        0.0148948198
  C        -0.0068246863        0.0115816285       -0.0211842205
  H        -0.0080717353       -0.0038103307        0.0202022173
  H         0.0091294238       -0.0182923320       -0.0071649342
  H         0.0036808532       -0.0160607837       -0.0009116909
  H        -0.0053907434        0.0056747430       -0.0169655585
  H        -0.0055344052       -0.0101679195       -0.0077041720
  H         0.0021536836       -0.0063054089        0.0030148375
  H         0.0056564671        0.0018958027        0.0010882086
  H        -0.0024591973        0.0071306323        0.0098086560
  H        -0.0099305100       -0.0055699943        0.0162567802
  H         0.0025607188       -0.0070554208        0.0033466522
