      15
 i =   487500, time =    97500.000, E =       -15.9201970859
  C        -0.1774337374        0.0106693242        1.0459561009
  C         0.4386511548        0.4065449559       -0.2551023054
  C         0.5507714719        0.5497503029        2.2959717954
  C        -0.5986916929        0.0952032341       -1.3459425499
  C        -0.5531047674       -1.0641671192       -1.9967273674
  H        -0.1450576383       -1.1227436340        1.1771626584
  H        -1.1813406080        0.3428284904        1.1118267851
  H         1.2848891309       -0.1585111569       -0.4117094667
  H         0.7068463148        1.5570266299       -0.2665096299
  H         0.1068389608        1.5152732216        2.5375942396
  H         1.6541686238        0.5625808385        2.2905460278
  H         0.2425112963       -0.0555067180        3.1592167358
  H        -1.4037934040        0.8494607636       -1.5320572926
  H        -1.3213526485       -1.3855693443       -2.6597810015
  H         0.2448579139       -1.7240068427       -1.8837259904
