      15
 i =   516600, time =   103320.000, E =       -15.9232575959
  C        -0.0328270189        0.0275072436        0.0111675780
  C        -0.0089885007       -0.0269471010        0.0151454229
  C        -0.0034798871        0.0026014302        0.0095419305
  C        -0.0099401960        0.0410795159       -0.0244011790
  C        -0.0123882764       -0.0099896194        0.0127921573
  H         0.0116736225       -0.0063571045       -0.0123896285
  H        -0.0014997954       -0.0088204251        0.0076002154
  H         0.0175979235        0.0245338330       -0.0009921570
  H         0.0317716875       -0.0191778725       -0.0078750990
  H         0.0033910588       -0.0027848086       -0.0061618204
  H        -0.0007377368        0.0014298769        0.0003731074
  H        -0.0000532351       -0.0052256113       -0.0005087538
  H        -0.0055028406       -0.0092357262       -0.0000772962
  H         0.0116232347       -0.0072896797       -0.0034198351
  H        -0.0006400402       -0.0013239513       -0.0007946424
