      15
 i =   506800, time =   101360.000, E =       -15.9200330204
  C         0.7082124245       -0.1888656662        1.0537829869
  C        -0.0402870638        0.3786521042       -0.1640371120
  C         0.3377961204        0.6576343350        2.3076952788
  C        -0.1002312715       -0.4785865809       -1.3407791861
  C        -1.2351616398       -0.4822241055       -2.0691267256
  H         1.8305166356       -0.1509664504        0.9042296976
  H         0.3885706116       -1.2223062419        1.1401805383
  H         0.5519157648        1.2104987381       -0.5373025552
  H        -1.0439294584        0.6840228784        0.2107276349
  H        -0.7122777216        0.9351986609        2.3833705028
  H         0.8959475886        1.5945043447        2.2452345843
  H         0.6674214355        0.2080559009        3.2336783282
  H         0.8371912516       -0.9577499774       -1.7845062315
  H        -1.2791362251       -0.7122425077       -3.1130342341
  H        -2.0684350692        0.1191570362       -1.6769298784
