      15
 i =    57200, time =    11440.000, E =       -15.9123454800
  C         0.0165952837       -0.0009890305        0.0138834859
  C        -0.0350590619        0.0325308000       -0.0174486470
  C        -0.0295767597        0.0047619261        0.0056662187
  C         0.0855365919        0.0045091663        0.0559007250
  C        -0.0592399885       -0.0141028117       -0.0321741311
  H         0.0143764634       -0.0238870569        0.0045253612
  H        -0.0058004244        0.0096215102       -0.0154050930
  H         0.0254818527        0.0035900201       -0.0150527834
  H        -0.0065846535       -0.0101902082       -0.0060870921
  H        -0.0042751340       -0.0031772381        0.0095270454
  H         0.0057964850       -0.0012375841       -0.0066804758
  H         0.0036580189        0.0080640152        0.0042606638
  H        -0.0043913818       -0.0090540651        0.0014850510
  H        -0.0062535943        0.0046522565       -0.0108622644
  H        -0.0002636975       -0.0050916998        0.0084619361
