      15
 i =  1246100, time =   249220.000, E =       -15.9140046210
  C         0.0051056574       -0.0356934455       -0.0584638289
  C         0.0161006016       -0.0059660916       -0.0110049286
  C         0.0015834725       -0.0102529145        0.0156367889
  C         0.0099862103        0.0295967289        0.0131481110
  C         0.0240331046        0.0289754440       -0.0111487220
  H        -0.0144068388        0.0038912770       -0.0006327612
  H        -0.0136645719        0.0128353502        0.0406616035
  H         0.0032104153        0.0043560228        0.0046370596
  H        -0.0181471487        0.0109794069        0.0165042526
  H        -0.0028476219        0.0052251860       -0.0047678151
  H         0.0130621377        0.0030533800        0.0059723221
  H        -0.0058670557       -0.0027456532        0.0020988070
  H        -0.0034612351        0.0017045821       -0.0130167448
  H        -0.0041177173       -0.0383123648        0.0052531013
  H        -0.0105694099       -0.0076469084       -0.0048772452
