      15
 i =  1165700, time =   233140.000, E =       -15.9217739408
  C         0.7367915241        0.7427741544        0.0544236964
  C        -0.4100415891       -0.1469172500        0.6747607099
  C         0.9695198086        1.9672648929        0.9151021298
  C        -0.7969304442       -1.3244733878       -0.1624350292
  C        -0.9109674607       -1.4368495686       -1.5251592571
  H         0.4662260111        1.0665692648       -0.9810451344
  H         1.6535206575        0.1331220112       -0.0835300382
  H        -1.3820666358        0.3705976175        0.8982391849
  H        -0.2133588601       -0.4940040547        1.6964794257
  H         0.3128825006        2.7630777325        0.5786914034
  H         1.9917403590        2.3001672837        0.7541737571
  H         0.7642408071        1.7671664878        1.9663481291
  H        -0.7765440629       -2.2617175559        0.3741762703
  H        -1.0539050868       -2.3805610406       -2.0224863051
  H        -0.7183473973       -0.5456272438       -2.1910878043
