      12
 i =  1303100, time =   260620.000, E =       -12.6521794785
  C        -5.0148581139       -1.3784439262       -1.0953158611
  C        -5.2424741815       -1.6902005759        0.4379295157
  C        -5.6941495935       -0.5306162567        0.0460958902
  H        -4.9472904856       -2.4662974539        1.1097947938
  C        13.2635544549        3.0193315138        0.5873592450
  H        14.1591238814        3.6211808928        0.4028898291
  H        -4.0943711946       -1.1960536725       -1.6179726559
  H        -5.7118824336       -1.8921526706       -1.7865345859
  H        -6.3227642029        0.3096038060        0.2248312804
  H        13.0441709156        2.4360336527       -0.2962312387
  H        13.4507231166        2.3894145437        1.4452205428
  H        12.4518656076        3.7087578176        0.8031683987
