      12
 i =   422100, time =    84420.000, E =       -12.7306740706
  C         0.6217534165        0.0287624299        0.3280790947
  C        -0.6206513369       -0.1844933520       -0.1223537116
  C        -1.9737302742        0.4172955843        0.0721266669
  H        -0.5804614242       -0.8221046730       -1.0099747028
  C         1.9552800054       -0.2782898604       -0.2397614074
  H         0.7829188223        0.6189562075        1.2671257304
  H        -2.1215013717        0.8747134962        1.0669920270
  H        -2.1800568213        1.0886782989       -0.7411135317
  H        -2.6965868675       -0.4122231226       -0.0323104114
  H         2.5679505482       -0.7619353058        0.5622412218
  H         1.9941874022       -1.0319788084       -1.0302622597
  H         2.4402722303        0.6451928121       -0.5365894593
