      12
 i =   486400, time =    97280.000, E =       -12.7163631513
  C         0.6054217119        0.1085500858        0.4145815497
  C        -0.6103172362       -0.3609736719        0.1571247025
  C        -1.7932417372        0.4567362491       -0.0870488624
  H        -0.7005861424       -1.2901945419       -0.4357358456
  C         1.8087182555       -0.2553919386       -0.3340567265
  H         0.5865122426        1.1043569849        0.8435633229
  H        -1.8252326534        1.4516419576        0.3581406486
  H        -1.9377910968        0.5189216279       -1.1335628263
  H        -2.6433969994       -0.1605179741        0.2866048014
  H         2.7608535210       -0.2782626491        0.2890061087
  H         1.7037288074       -1.1870148100       -0.8433250236
  H         1.9298282832        0.4497344604       -1.1592616830
