      12
 i =   889700, time =   177940.000, E =       -12.6511230729
  C        -5.3879878710       -1.2247688981        0.5047365407
  C        -5.8015343719       -1.3041364441       -0.9890628070
  C        -6.2585703015       -0.2648030873       -0.2698620519
  H        -5.6894213687       -1.8478370183       -1.9015100576
  C        14.4921987396        2.3314666380        0.5666789210
  H        15.1644883250        3.1516416659        0.3203869005
  H        -5.9264505709       -1.6393224331        1.3646145962
  H        -4.3520836573       -1.0211604805        0.7473972662
  H        -6.7417288597        0.7558309837       -0.2610830684
  H        14.3895315386        1.6550351085       -0.2731096813
  H        14.8699199859        1.7570969530        1.4093694807
  H        13.5084302053        2.6968282883        0.8283127172
