      12
 i =   765100, time =   153020.000, E =       -12.6499524754
  C        -4.6577940628       -1.4073446653       -1.1832618048
  C        -5.0975141523       -2.0844370773        0.1333430138
  C        -4.9012297271       -0.8054713169        0.1064193675
  H        -5.4616887152       -3.0394919929        0.3977652663
  C        12.1994815571        3.5727690933        0.8546377522
  H        12.6555027144        4.5533218736        0.8789124320
  H        -3.6883274023       -1.2999991641       -1.6690646092
  H        -5.5214443261       -1.3476394918       -1.8846203338
  H        -4.8352068693        0.0729818057        0.7961606947
  H        12.2843973860        3.1456982635       -0.1400666381
  H        12.6973855026        2.9095263505        1.5604044672
  H        11.1478775767        3.6386158017        1.1193920631
