      12
 i =   100900, time =    20180.000, E =       -12.7381173248
  C         0.4061849912       -0.5078020878        0.0679142695
  C        -0.4027059741        0.5128545830       -0.1965707658
  C        -1.8895708406        0.3899213377       -0.1027391814
  H        -0.0371020709        1.5141289998       -0.4344024038
  C         1.8878726199       -0.3943496840        0.1963633349
  H         0.0256232947       -1.5284270083        0.2882105777
  H        -2.2357643545        1.0421370033        0.6058700820
  H        -2.4290872961        0.6595462587       -1.0340263329
  H        -2.0759693006       -0.6254319207        0.1449814943
  H         2.1510798243        0.6424139469        0.0940198339
  H         2.1196908626       -0.6975335699        1.1856373739
  H         2.4603089177       -1.0142711230       -0.4328422054
