      12
 i =  1198800, time =   239760.000, E =       -12.6528637471
  C        -4.6663515858       -0.8651936607        0.1103654372
  C        -5.2032611511       -1.9400735205       -0.8359314756
  C        -6.1360008090       -1.2059626943       -0.2036223546
  H        -4.8725427926       -2.6443531984       -1.6105440160
  C        13.2614416568        3.3173774155        0.7392425001
  H        14.1821365657        3.7184193500        1.1513169102
  H        -4.1808279579       -1.3225216693        1.0240475279
  H        -4.2428978453        0.0495026215       -0.3408834205
  H        -7.0942047541       -1.1308497220        0.1756384976
  H        13.3747747730        3.1580384919       -0.3528355387
  H        13.0588483513        2.4091935119        1.2525786403
  H        12.4745026438        4.0305763897        0.9640930461
