      12
 i =  1294500, time =   258900.000, E =       -12.6409577466
  C        -5.1758698681       -1.9357024137       -0.8141356718
  C        -5.6551633685       -1.0989185562        0.4323247025
  C        -5.0109334054       -0.3989974744       -0.5034051850
  H        -6.4430110998       -1.1140537750        1.1615066365
  C        13.1927098584        2.9247439688        0.7730002007
  H        14.0861323665        3.4939008181        0.5536384219
  H        -4.4551581366       -2.6841225249       -0.6029140194
  H        -6.0279348548       -2.1432902510       -1.6397606536
  H        -4.2713988857        0.3148970847       -0.6685086920
  H        12.9349667933        2.2917181139       -0.0861032858
  H        13.3691555678        2.3031929207        1.6341688423
  H        12.3760206482        3.6015497682        0.9851477344
