      12
 i =   666700, time =   133340.000, E =       -12.6513150258
  C        -0.0108866101       -0.0121456019        0.0150597543
  C         0.0185276623        0.0235691253        0.0395531528
  C        -0.0057258897       -0.0413722141       -0.0291201722
  H        -0.0000365672        0.0167133254        0.0026127386
  C        -0.0048316739        0.0283042410       -0.0138710605
  H        -0.0100902615       -0.0374169668       -0.0056669510
  H        -0.0042489701        0.0142208264        0.0074100367
  H        -0.0024145723        0.0002783279       -0.0057433650
  H         0.0059562121        0.0125111259       -0.0007158036
  H         0.0084545235        0.0067577504       -0.0112657543
  H         0.0012916734       -0.0032027922        0.0022047379
  H         0.0040044736       -0.0082171472       -0.0004573139
