      12
 i =   417100, time =    83420.000, E =       -12.7111191175
  C        -0.0025352091        0.1045972118        0.0270461529
  C         0.0231876026        0.0270114581       -0.1068639818
  C        -0.0281094386       -0.0436331159        0.0855279409
  H         0.0164242967        0.0039193915        0.0174694453
  C         0.0108195669       -0.1202079662       -0.0097495554
  H        -0.0243432953       -0.0122994454       -0.0097756843
  H         0.0026978691       -0.0068528077       -0.0020167750
  H         0.0001108772        0.0026423411       -0.0148952386
  H        -0.0057396967        0.0047643793       -0.0028540528
  H         0.0213859275        0.0031492485        0.0102548819
  H        -0.0118591434        0.0142320692        0.0140121673
  H        -0.0020393569        0.0226772356       -0.0081553004
