      12
 i =  1231800, time =   246360.000, E =       -12.6575152442
  C         0.0101569934       -0.0396096209       -0.0527153845
  C        -0.0045615053       -0.0472957076        0.0140371529
  C        -0.0224306537        0.0640223235        0.0752490261
  H         0.0197703267        0.0257565026       -0.0169443472
  C        -0.0074267179        0.0018273798       -0.0486872270
  H         0.0052106713        0.0023492962        0.0051533775
  H        -0.0056094390        0.0067596643        0.0010127002
  H         0.0071097055       -0.0074694322       -0.0031845504
  H        -0.0011626729        0.0001763487       -0.0038340201
  H        -0.0005042992        0.0031485933        0.0174107160
  H        -0.0023251095       -0.0090325084        0.0087454943
  H         0.0017727005       -0.0006328392        0.0037570622
