      12
 i =   915800, time =   183160.000, E =       -12.6513056644
  C        -5.7417957477       -1.0457287075        0.5955208567
  C        -5.9129293795       -1.4451533167       -0.8702073497
  C        -5.6050148136       -0.2082289246       -0.6072613027
  H        -6.1767598687       -2.1569574400       -1.6106131100
  C        14.3760453168        2.2558074676        0.6812262543
  H        15.0630818868        3.0416454543        0.4983945941
  H        -6.7171734182       -1.1567258122        1.1075643931
  H        -4.8464982599       -1.1946434086        1.0761198550
  H        -5.3655975934        0.8235088660       -0.9056126188
  H        14.2974660890        1.6205684894       -0.2131694175
  H        14.7229576045        1.6399955318        1.5271414946
  H        13.3848774900        2.6650508477        0.9119900142
