      12
 i =    87400, time =    17480.000, E =       -12.6857709540
  C        -0.0837709005       -0.0930925958        0.1370820339
  C         0.0886954668        0.1420996234        0.0432285576
  C        -0.0469749890       -0.0555043782       -0.0780574329
  H        -0.0069568931       -0.0275612515        0.0127795799
  C         0.0504880022        0.0247054621       -0.1109796439
  H        -0.0105180186        0.0099688288       -0.0054254059
  H         0.0048565116        0.0021203248        0.0166605909
  H        -0.0095601920        0.0030433185       -0.0123683600
  H         0.0122858333       -0.0058607366       -0.0060129415
  H        -0.0061871329        0.0036084839        0.0055742641
  H         0.0050933656        0.0062177525       -0.0021854616
  H         0.0025489466       -0.0097448319       -0.0002957806
