      12
 i =   883800, time =   176760.000, E =       -12.6540509419
  C        -5.5284562691       -1.2688787308        0.5566610988
  C        -5.8328134417       -1.2948329147       -0.9689319749
  C        -6.0465882056       -0.1684508800       -0.3659861314
  H        -5.5639009737       -1.8581678738       -1.9074002414
  C        14.4588369170        2.3060337413        0.5949399303
  H        15.1045482911        3.1354141371        0.3105300627
  H        -6.2606600869       -1.7057787892        1.2252653242
  H        -4.4851066802       -1.4524720056        0.8723985914
  H        -6.4361354730        0.8114461225       -0.3537392302
  H        14.3777536383        1.6348421834       -0.2589771792
  H        14.9144015645        1.8010377655        1.4452985650
  H        13.4898883757        2.7114658169        0.8510462144
