      12
 i =   850400, time =   170080.000, E =       -12.6540467067
  C         0.0284842442        0.0314023037       -0.0779653348
  C         0.0028959055       -0.0014508767       -0.0183154943
  C        -0.0268207486       -0.0072621970        0.0501593622
  H        -0.0004944231        0.0009204820       -0.0010721064
  C         0.0044768850        0.0064300809       -0.0045363766
  H         0.0037462108        0.0102781042       -0.0042601967
  H         0.0093526660       -0.0186141971        0.0415276499
  H        -0.0262034094        0.0020943260        0.0190766849
  H         0.0093732325       -0.0131236122       -0.0075496820
  H        -0.0025557754       -0.0029898757        0.0039963949
  H        -0.0061763317       -0.0023341324       -0.0014984021
  H         0.0039215441       -0.0053504055        0.0004375009
