      12
 i =   475300, time =    95060.000, E =       -12.7344288981
  C         0.5719245877        0.2200569491        0.1181743260
  C        -0.6144787245       -0.2720400584       -0.1821124697
  C        -1.9267296004        0.3887048396        0.1792089322
  H        -0.7741979190       -1.2698713217       -0.6543551754
  C         1.9663150660       -0.3503413350       -0.1396198214
  H         0.6798775484        1.1694435326        0.8272744669
  H        -1.7724779825        1.2780658780        0.7504095721
  H        -2.4274182723        0.6787826963       -0.7214788812
  H        -2.6919084471       -0.2644247733        0.6879572837
  H         2.5043279825       -0.5323985404        0.8024499625
  H         1.9476745389       -1.2767899322       -0.6570422867
  H         2.5694974923        0.3794848461       -0.7450697643
