      12
 i =   890100, time =   178020.000, E =       -12.6528137948
  C        -5.5873799485       -1.1702999273        0.5657700006
  C        -5.9356245169       -1.3513577945       -0.9067440759
  C        -5.8408475568       -0.1425822445       -0.4626491561
  H        -6.1426035643       -2.0580796727       -1.7392562777
  C        14.4483544931        2.2509334555        0.6095982791
  H        15.1157293465        3.0655579077        0.3711987042
  H        -6.3417051784       -1.6919234390        1.1729912322
  H        -4.5590761726       -1.2137350258        0.9371138340
  H        -5.9795441027        0.9213876185       -0.5114181961
  H        14.3484553640        1.5786230697       -0.2384928374
  H        14.8352143337        1.6909058791        1.4497673941
  H        13.4648500656        2.6322597033        0.8701142180
