      12
 i =  1086400, time =   217280.000, E =       -12.6473094256
  C        -0.0117660669       -0.0101204370        0.0120568580
  C        -0.0183558069        0.0443304169        0.0570458236
  C         0.0438957855        0.0082148460       -0.0458010582
  H         0.0016450887        0.0013126784       -0.0007967642
  C         0.0027184207        0.0028656888       -0.0214661140
  H         0.0114025218        0.0057332307       -0.0017673155
  H        -0.0041447276       -0.0393628281       -0.0008493093
  H         0.0003115967        0.0031147375       -0.0176739958
  H        -0.0166677062       -0.0130354868       -0.0128180016
  H         0.0031746970        0.0047189462        0.0271655645
  H        -0.0017258685       -0.0109885614        0.0032791930
  H        -0.0104879342        0.0032167688        0.0016251195
