      12
 i =   731600, time =   146320.000, E =       -12.6549497741
  C        -1.9510869341        0.1113238281       -0.7191071885
  C        -1.8093474654       -0.8269583791        0.3860172656
  C        -0.9382254201       -0.9994877059       -0.5884379732
  H        -2.4269374030       -1.2326973201        1.1549428124
  C         3.9481511256        1.3738402208        0.8019584821
  H         5.0416774789        1.3048514976        0.7040515515
  H        -2.6715269912        0.0263498415       -1.4849493722
  H        -1.7222779008        1.2207113294       -0.5922607088
  H         0.0054981458       -1.4483014406       -0.9214536877
  H         3.4507518666        0.7482232487        0.0801754171
  H         3.6521552028        1.0554061151        1.8132288824
  H         3.6137859483        2.3922029138        0.6710645582
