      12
 i =   371600, time =    74320.000, E =       -12.7161185564
  C         0.5365986167       -0.1601132379        0.4880123414
  C        -0.6277101609       -0.3972390964       -0.1327260320
  C        -1.7496226595        0.5620045627       -0.0392119072
  H        -0.5854502977       -0.9425183442       -1.1094556825
  C         1.8242346811       -0.1277057439       -0.2257665091
  H         0.4686601960        0.3317156427        1.4408024906
  H        -1.7440035196        1.1902636502        0.8809600881
  H        -1.7319777907        1.1149450167       -0.9584928036
  H        -2.7090267408        0.0788247880       -0.0457047436
  H         2.6727486797       -0.3434574766        0.3666050549
  H         1.7973357618       -0.8080747579       -1.0514664420
  H         2.0283234456        0.8446177888       -0.5993646067
