      12
 i =   974300, time =   194860.000, E =       -12.6425993793
  C         0.0213258586       -0.0285575670       -0.0328655806
  C         0.0152406205       -0.0066109993       -0.0184919949
  C        -0.0117052553        0.0285134029        0.0244584471
  H        -0.0010810761       -0.0007451040        0.0022596439
  C         0.0002476998        0.0047111927       -0.0142976008
  H         0.0002972965       -0.0023538052        0.0040956622
  H         0.0162807842        0.0029337993        0.0140672592
  H        -0.0523066789        0.0127914391        0.0239681235
  H         0.0127482925       -0.0089718129       -0.0074304490
  H        -0.0000558145       -0.0033059927       -0.0006164139
  H        -0.0007356840        0.0027144720        0.0006053760
  H        -0.0002560432       -0.0011190249        0.0042475271
