      12
 i =   728800, time =   145760.000, E =       -12.6542221109
  C        -2.0641321218       -0.3060299894       -0.8489166767
  C        -1.5838706367       -0.8359323666        0.4249688877
  C        -0.6775105896       -0.2514337519       -0.3016914123
  H        -1.8569059429       -1.2113440089        1.3926864878
  C         3.6450745157        1.1200361470        0.6458671518
  H         3.3079582683        0.4978753417       -0.1679282308
  H        -2.3684783861       -0.8415576236       -1.6900952535
  H        -2.5041052054        0.7191004282       -0.7055858497
  H         0.3136293240        0.0209456490       -0.5825116299
  H         4.5662634744        0.7712353776        1.0553448747
  H         3.7780861996        2.1438329173        0.2485026564
  H         2.8717201000        1.1572927980        1.4001575702
