      12
 i =   722500, time =   144500.000, E =       -12.6563203801
  C        -2.0527819948       -0.0855085099       -0.7301100051
  C        -1.7580477520       -0.6172320153        0.6065868421
  C        -1.0940150830       -1.1952324964       -0.3216871700
  H        -2.2287768817       -0.6397708138        1.5692218152
  C         4.1070650206        1.5319240018        0.4213418537
  H         3.0606424517        1.3050213677        0.2529042120
  H        -2.9072912488       -0.3369994456       -1.3758315189
  H        -1.6155636288        0.8489706432       -0.9912330803
  H        -0.1577477230       -1.6601989287       -0.6065980925
  H         4.2505848500        1.8102341567        1.4678337381
  H         4.7086429237        0.6680526258        0.1849221019
  H         4.3959222918        2.3665620961       -0.2168003174
