      12
 i =   130400, time =    26080.000, E =       -12.7089258517
  C         0.0960559629        0.1807692580        0.0201984098
  C        -0.0736108634       -0.0688068656        0.2030795577
  C         0.0241371050       -0.0192101050       -0.1246504798
  H         0.0091954707        0.0195544855       -0.0126657298
  C        -0.0550010259       -0.1107604867       -0.0586878570
  H        -0.0016276366        0.0118179611       -0.0043303865
  H         0.0068372503       -0.0065917745        0.0042221299
  H        -0.0068514621       -0.0121763576       -0.0208947418
  H         0.0024765984        0.0038808469       -0.0015572530
  H         0.0043618907        0.0116137040        0.0045250956
  H        -0.0072922403       -0.0166055821       -0.0083907061
  H         0.0013189501        0.0065149161       -0.0008480391
