      12
 i =  1050500, time =   210100.000, E =       -12.6567231752
  C        -0.0117356438        0.0206021507        0.0356261671
  C        -0.0559008179       -0.0127661939       -0.0161887049
  C         0.0493367978       -0.0055535152       -0.0387085562
  H         0.0019530700        0.0063574213        0.0053669529
  C         0.0006026352       -0.0003318269       -0.0015202784
  H         0.0035480729        0.0015648394        0.0005732774
  H        -0.0069680199       -0.0009098183        0.0005466697
  H         0.0178369988       -0.0031767237       -0.0145995057
  H         0.0049941314       -0.0034388544        0.0189186690
  H         0.0005561771       -0.0006085168        0.0057473622
  H        -0.0009125998       -0.0026586866        0.0013917549
  H        -0.0033108017        0.0009197244        0.0028461920
