      12
 i =   674600, time =   134920.000, E =       -12.6836669027
  C        -1.7645456005       -1.1408082666        0.6590800877
  C        -1.3372451017       -0.6279775065       -0.3590804344
  C        -0.6313005844       -0.1397015366       -1.4209548118
  H        -2.2465667111       -1.4063310167        1.5284397506
  C         3.0331995889        1.5180767489        1.0659147279
  H         3.4357058197        0.5090093671        1.1423592425
  H         0.3767718131        0.2010855151       -1.2519429299
  H        -0.7094718736       -0.9822999128       -2.0832528947
  H        -1.2053639939        0.7200461222       -1.7959035479
  H         1.9605501728        1.5098166264        1.1995811584
  H         3.4660912418        2.1606096301        1.8289277741
  H         3.2622533840        1.9402295934        0.0876579666
