      12
 i =  1459700, time =   291940.000, E =       -12.6525420718
  C        -5.7444410198       -1.9466617355       -0.6650430784
  C        -5.0721827575       -1.2402115124        0.4908841431
  C        -5.8337628397       -0.4810318681       -0.1869326443
  H        -4.4146934879       -1.5810721828        1.2919308804
  C        13.8677724278        3.1097195867        0.3508070324
  H        14.5069031351        3.8240952130       -0.2141652058
  H        -5.2108117386       -2.1535775550       -1.5919526857
  H        -6.4640987149       -2.6137995897       -0.3446011757
  H        -6.2826394000        0.4822191504       -0.5360262883
  H        13.9615726234        2.1442786966       -0.1328924028
  H        14.2127203961        3.0807675913        1.3662686668
  H        12.8489179353        3.4684756015        0.2839897634
