      12
 i =   425300, time =    85060.000, E =       -12.7372561080
  C         0.5989153123        0.2601658949        0.1895548393
  C        -0.5866553197       -0.1225382505       -0.2942318565
  C        -1.9391733544        0.2818624456        0.1810544048
  H        -0.7315310573       -0.9851144327       -0.9847682504
  C         1.9358267225       -0.3890465420       -0.1193954253
  H         0.6393828717        0.9489800513        1.0171856554
  H        -1.8508611355        0.9358855659        1.1010143038
  H        -2.4683848240        0.8758351408       -0.5517980304
  H        -2.5627839551       -0.5644687540        0.5223304320
  H         2.3981455177       -0.9803947481        0.7068255070
  H         1.8208720681       -1.0286309454       -1.0148949617
  H         2.6489481385        0.4351401777       -0.2832880072
