      12
 i =    15600, time =     3120.000, E =       -12.7182436296
  C         0.3194783962        0.0548440374        0.6477697770
  C        -0.2058830368        0.4493162170       -0.5161312081
  C        -1.6450935939        0.5043020256       -0.7870086374
  H         0.3319732114        0.4554599732       -1.4104269312
  C         1.5721790346       -0.8712577256        0.6974565175
  H        -0.3139086180       -0.0606539052        1.4838854122
  H        -1.9657831237        1.3263806252       -1.3980011242
  H        -1.7200080301       -0.3320291276       -1.5381763170
  H        -2.2726189434        0.3573711533        0.0975070950
  H         2.3469930414       -0.4068493503        0.1457500382
  H         1.9022364188       -1.1112060320        1.7209172390
  H         1.2063601203       -1.8634146430        0.3970388307
