      12
 i =    91800, time =    18360.000, E =       -12.7020664015
  C        -0.1271694579       -0.0968228705        0.1812680957
  C         0.1226802131        0.1699608566        0.0588809500
  C        -0.0501492676       -0.0740033960       -0.1009276600
  H        -0.0010453540        0.0022346168       -0.0072895557
  C         0.0768285362        0.0471867465       -0.1735814052
  H        -0.0090890614       -0.0335926920        0.0072313836
  H         0.0057349613       -0.0018567057       -0.0017397719
  H        -0.0073817706       -0.0063502021        0.0106058620
  H         0.0096885754        0.0066779324       -0.0068171441
  H        -0.0043664351       -0.0171768353        0.0055211015
  H        -0.0052835141       -0.0074832247        0.0061904233
  H        -0.0104474254        0.0112257740        0.0206577208
