      12
 i =  1441700, time =   288340.000, E =       -12.6473466206
  C        -5.3465297455       -2.1734162741       -0.1897407502
  C        -5.3297161640       -0.7822119604        0.2945097493
  C        -5.9652525692       -0.9800355167       -0.8330078184
  H        -5.0191854111       -0.2328106824        1.1109778740
  C        13.8333422816        3.3420693139        0.6020410441
  H        14.4352337971        4.0520586164        0.0347940701
  H        -4.3907384644       -2.6814969101       -0.7167285651
  H        -5.8152180152       -2.8437903237        0.4374947039
  H        -6.6440732563       -0.5489821451       -1.6063936256
  H        13.9041152041        2.3710701143        0.0794957459
  H        14.1941336928        3.2721052834        1.5907881777
  H        12.7979639723        3.6851685751        0.5733551975
