      12
 i =  1145900, time =   229180.000, E =       -12.6526827735
  C        -5.0791975055       -0.4921920285        0.0487340686
  C        -5.5196504298       -1.9162723358       -0.0550290616
  C        -6.3157386653       -1.0403140737       -0.5040141931
  H        -5.4338084606       -2.9129768823        0.3090990706
  C        14.0323087713        2.8158616855        0.4090681844
  H        14.8876918178        3.4373370810        0.6580213801
  H        -4.8397970530        0.0101221436        0.9548753769
  H        -4.3330952653       -0.1376328072       -0.7114261227
  H        -7.1699021573       -0.6624019081       -1.0103517251
  H        13.9876533484        2.6280322872       -0.6789680232
  H        14.1232375055        1.8740834673        0.9389720196
  H        13.1234915466        3.3053272456        0.7461745339
