      12
 i =   538000, time =   107600.000, E =       -12.6988607434
  C         0.1253497454       -0.2778821175       -0.3042715786
  C        -0.1021493771        0.3555899819       -0.1243807682
  C         0.0559077508       -0.1727474859        0.1861391027
  H        -0.0008179145       -0.0040593061        0.0079705486
  C        -0.0658204174        0.1198989530        0.2249651879
  H        -0.0059896962       -0.0199359491        0.0055820270
  H        -0.0068312612       -0.0131210212       -0.0092226825
  H         0.0003335022        0.0111429976        0.0024769813
  H        -0.0037326226       -0.0001781395        0.0050965270
  H         0.0063728566        0.0048251063        0.0094484387
  H         0.0031098466        0.0091182613       -0.0132390966
  H        -0.0057324125       -0.0126512808        0.0094353128
