      12
 i =   987400, time =   197480.000, E =       -12.6514952172
  C        -0.0113600525       -0.0008452183        0.0381241783
  C         0.0151908843       -0.0240301516        0.0078234411
  C         0.0290194664       -0.0098294996       -0.0338008289
  H        -0.0057051918        0.0343812338        0.0004597895
  C        -0.0047434767       -0.0030391321       -0.0068502520
  H         0.0024312085        0.0011284790        0.0072026789
  H        -0.0180590189        0.0025619634       -0.0236460555
  H         0.0112341700       -0.0117219623       -0.0027304982
  H        -0.0214370690        0.0095745381        0.0069020433
  H        -0.0004104156       -0.0030216265        0.0008219681
  H        -0.0027579376        0.0084889718        0.0005206339
  H         0.0065974328       -0.0036475957        0.0051729012
