      12
 i =  1084700, time =   216940.000, E =       -12.6578563214
  C         0.0097120798        0.0064069477       -0.0119193933
  C        -0.0018369279       -0.0256089875        0.0244398214
  C         0.0075397347        0.0322597003       -0.0044437859
  H        -0.0003487373        0.0021535028       -0.0043975063
  C         0.0042469532        0.0056089562       -0.0166765739
  H        -0.0043281735       -0.0026404196        0.0002033875
  H        -0.0197121974        0.0025391088        0.0040811981
  H         0.0054646914       -0.0124486710       -0.0093506070
  H        -0.0004673392       -0.0048981479        0.0020590039
  H         0.0016032232        0.0025836436        0.0075243233
  H         0.0010195063       -0.0082275355        0.0066090845
  H        -0.0028928132        0.0022719021        0.0018710476
