      12
 i =  1309400, time =   261880.000, E =       -12.6451541881
  C        -4.8876490659       -0.9674194969       -0.9045032898
  C        -5.1448783342       -1.4899658707        0.4516906261
  C        -6.2031172360       -1.3303752397       -0.2494746753
  H        -4.6443971965       -1.5384524353        1.4274879202
  C        13.4620043445        3.1296206315        0.6331395956
  H        14.3755308130        3.7201995099        0.4590739462
  H        -4.3492287642        0.0429727892       -0.8704177866
  H        -4.5713983177       -1.5094797447       -1.7894591276
  H        -7.2167626171       -1.6438165550       -0.4867516677
  H        13.2399264148        2.5588347585       -0.2309020559
  H        13.6064654268        2.4357053139        1.4687559898
  H        12.6108012516        3.7764890969        0.8461832574
