      12
 i =  1275500, time =   255100.000, E =       -12.6570812450
  C        -0.0303269783        0.0088162656        0.0072568877
  C        -0.0105972389        0.0095796543       -0.0145125844
  C         0.0183746777       -0.0120115811       -0.0046037732
  H        -0.0061740455       -0.0010200554       -0.0109918533
  C         0.0062821490        0.0069463220       -0.0021926885
  H        -0.0041570730       -0.0027296639        0.0042746462
  H        -0.0021447750        0.0075003148        0.0049956988
  H         0.0130816390       -0.0165326274       -0.0010963922
  H         0.0164595759        0.0019283074        0.0173572021
  H        -0.0012501889       -0.0043384322       -0.0024728708
  H        -0.0003946107        0.0019058116       -0.0003652688
  H         0.0008468689       -0.0000443157        0.0023509965
