      12
 i =   814600, time =   162920.000, E =       -12.6557003216
  C        -4.7639324263       -1.3119616937       -0.9452359779
  C        -5.2525009996       -1.3293956232        0.4618987517
  C        -6.1523339769       -1.3496026039       -0.4741548362
  H        -4.7552686259       -1.4613424916        1.3680484646
  C        13.4015557984        3.3054182600        0.8373545523
  H        13.8297247460        4.2993530106        0.6493395857
  H        -4.3829640054       -0.3554055279       -1.2581359444
  H        -4.3691486994       -2.2124153672       -1.3961629972
  H        -7.1769728742       -1.0882237549       -0.6485863884
  H        13.4339671309        2.7208845208       -0.0793829464
  H        14.0027918394        2.8372906417        1.6008709084
  H        12.3922027073        3.4288325438        1.1955782529
