      12
 i =  1247500, time =   249500.000, E =       -12.6493795837
  C        -5.2215624322       -1.3051244346       -1.0796767791
  C        -5.5208045194       -1.7372820635        0.3878501033
  C        -5.2561042651       -0.5066356177        0.2166749681
  H        -5.6326248617       -2.5699344035        1.0980743905
  C        13.3204005893        2.9536211838        0.4668937808
  H        14.2493269010        3.4079244679        0.8993413705
  H        -4.3296016407       -1.5875565917       -1.6408600361
  H        -6.1498282919       -1.3209846408       -1.6977444953
  H        -5.3856988844        0.5870455559        0.3604662898
  H        13.4685274516        2.8507037829       -0.6000561586
  H        13.1447157844        2.0349566401        0.9876315774
  H        12.5473041879        3.6929323842        0.6915492302
