      12
 i =   601400, time =   120280.000, E =       -12.7167242826
  C         0.0648579414       -0.2614257439        0.0506566061
  C        -0.0590711730        0.0879796663        0.2344225312
  C         0.0488461455        0.0251787322       -0.1802192389
  H         0.0037682315        0.0183402422        0.0080803786
  C        -0.0358564830        0.1228791258       -0.1010792838
  H        -0.0182866744       -0.0012137339        0.0027452875
  H        -0.0073774083       -0.0201049941       -0.0073619493
  H         0.0016108659        0.0026606481       -0.0072463485
  H        -0.0039748686        0.0013968035        0.0080971894
  H         0.0009388644        0.0227261786       -0.0099831219
  H        -0.0026960257       -0.0012124188       -0.0055732625
  H         0.0072405844        0.0027954938        0.0074612122
