      12
 i =  1212100, time =   242420.000, E =       -12.6529123647
  C         0.0066692894        0.0312172712        0.0733945787
  C         0.0353015106        0.0097000820       -0.0534442762
  C        -0.0222265333       -0.0328711769       -0.0254361887
  H        -0.0139031012        0.0005653320        0.0101659123
  C         0.0067579172        0.0075627269        0.0226698067
  H        -0.0055533695       -0.0031958181       -0.0022274660
  H         0.0017559863       -0.0048108944       -0.0085016070
  H        -0.0134980750        0.0016996846       -0.0072080199
  H         0.0041988032       -0.0058036230        0.0010200254
  H         0.0009568746       -0.0020907212       -0.0100957861
  H        -0.0005061754        0.0005581532       -0.0004169176
  H         0.0000468731       -0.0025310163        0.0000799383
