      12
 i =   675100, time =   135020.000, E =       -12.4283677398
  C         0.0439366940        0.0866691516        0.0917344619
  C        -0.0082226152       -0.1272096425       -0.1444779694
  C        -0.0631814221        0.1051500366        0.0270919622
  H         0.0032597431       -0.0028147658       -0.0107535638
  C        -0.0034722828        0.0032296833       -0.0026275398
  H         0.0003955136       -0.0020581184        0.0002296306
  H         0.0000024051       -0.0099831520        0.0125294545
  H        -0.0004565113       -0.0251617219        0.0092891203
  H         0.0250392502       -0.0265232234        0.0146364127
  H         0.0031407488       -0.0001790346        0.0003086849
  H        -0.0002700223        0.0000227196        0.0010579578
  H        -0.0001715010       -0.0011419324        0.0009813881
