      12
 i =  1278300, time =   255660.000, E =       -12.6516313028
  C        -0.0186088906        0.0049992530       -0.0517604842
  C        -0.0229648174        0.0033697642        0.0263989730
  C        -0.0133148280       -0.0068080683        0.0290595444
  H         0.0487193978        0.0170472078        0.0103147344
  C        -0.0056518470       -0.0129580632       -0.0144347394
  H         0.0048505269        0.0033988656        0.0016322058
  H        -0.0048260824        0.0020223053       -0.0015711758
  H         0.0111594124       -0.0045043070        0.0157126947
  H         0.0008977381       -0.0156642319       -0.0228026593
  H         0.0017222514        0.0023590453        0.0048801585
  H        -0.0002382772        0.0036282090       -0.0013089582
  H        -0.0017445840        0.0031100202        0.0038797061
