      12
 i =   610200, time =   122040.000, E =       -12.7418919625
  C        -0.0036577588       -0.0727389269        0.1323077679
  C        -0.0231417820       -0.0744532074        0.1434600422
  C        -0.0069376306        0.0879479403       -0.1282187501
  H         0.0011800959       -0.0191910254       -0.0083479718
  C         0.0040961612        0.0608417298       -0.1296842100
  H         0.0003619916        0.0048254466        0.0071870595
  H         0.0029061976        0.0012397654       -0.0050822119
  H         0.0070620837       -0.0069803836        0.0173918700
  H         0.0141890828        0.0048456368       -0.0215330665
  H        -0.0051821460        0.0013365878       -0.0034152945
  H         0.0010353532        0.0021577871       -0.0057339320
  H         0.0080883513        0.0101686494        0.0016686973
