      12
 i =  1451800, time =   290360.000, E =       -12.6492324368
  C        -5.6337192055       -1.8434588175       -0.7957034084
  C        -5.1491233179       -0.6668058759        0.0416995432
  C        -6.0563406464       -1.3035672743        0.6336981676
  H        -4.3204225647        0.0273963486        0.1289978361
  C        14.0414898422        3.2270088947        0.1552597194
  H        14.7087833649        3.9494638716       -0.3293593879
  H        -6.4063204497       -1.6701693417       -1.6185130854
  H        -5.1465204762       -2.8186804077       -0.8293849735
  H        -6.9448386842       -1.4373218955        1.1926814765
  H        14.1175649776        2.2361722827       -0.2895359235
  H        14.3222381972        3.1378313649        1.1914741398
  H        13.0070706971        3.5679421424        0.1371247780
