      12
 i =  1355100, time =   271020.000, E =       -12.6525680157
  C        -0.0263061927       -0.0231400837        0.0164379484
  C        -0.0433749148       -0.0111912073       -0.0374530951
  C         0.0506320028        0.0402965111       -0.0206058479
  H        -0.0087118815       -0.0004261153        0.0257884481
  C         0.0005225918        0.0117133729        0.0075223106
  H         0.0000928426       -0.0014091809       -0.0007335909
  H         0.0128169322       -0.0036668709       -0.0110703195
  H         0.0086217695        0.0080647365        0.0211900702
  H         0.0113443331       -0.0028637462        0.0059794096
  H        -0.0035597421       -0.0108568799       -0.0022505560
  H        -0.0048785235       -0.0016860788       -0.0051195651
  H         0.0028007826       -0.0048344574        0.0003147876
