      12
 i =   944400, time =   188880.000, E =       -12.6564247812
  C        -4.9828062182       -0.8946919139       -0.6950419911
  C        -5.9370664919       -1.7866172992        0.0156218194
  C        -6.2284083271       -0.5415789771        0.0652191155
  H        -6.0348689382       -2.7425778569        0.4916809940
  C        14.2201765744        2.6785528360        0.5417075156
  H        14.9512383807        3.5013678832        0.5559332667
  H        -4.0524562865       -0.7220005983       -0.2203095060
  H        -5.0251411159       -1.0076111687       -1.7701008866
  H        -6.8764565443        0.2592002489        0.1477733449
  H        14.2425136756        2.1838610388       -0.3932140771
  H        14.4613221322        1.9502849019        1.3385290494
  H        13.2253940961        3.0638225947        0.7135471000
