      12
 i =   873400, time =   174680.000, E =       -12.6548106207
  C        -5.5245771154       -1.2861284430        0.5214857921
  C        -5.7205410202       -1.3616484387       -0.9620342710
  C        -5.9389414287       -0.2014623006       -0.3975417638
  H        -5.7919328626       -2.0213691135       -1.7658151288
  C        14.2957393997        2.4001433125        0.6342104342
  H        14.8102234860        3.3045491305        0.2655534618
  H        -6.2621778378       -1.8626372972        1.0249048619
  H        -4.5527724956       -1.2555247461        1.0705496760
  H        -6.1548798508        0.9048524876       -0.4551234732
  H        14.2514956697        1.6630096790       -0.1433267273
  H        14.8307222835        1.9761513204        1.4912430434
  H        13.2867938796        2.6424336696        0.9414636736
