      12
 i =   773500, time =   154700.000, E =       -12.6513595494
  C        -4.6523495193       -1.2537377927       -1.1518451023
  C        -4.6560331101       -1.7085934032        0.3604072041
  C        -5.7932266274       -1.4625800203       -0.2254514760
  H        -3.9452233000       -2.2404298967        0.9139574548
  C        12.5189315212        3.6675261750        0.9107249562
  H        12.9559753834        4.6567635403        0.9166549323
  H        -4.2596826556       -0.2190276116       -1.2370964418
  H        -4.2289865016       -1.9403056075       -1.8979247641
  H        -6.8381750798       -1.2210045239       -0.1285011922
  H        12.6061994918        3.2381231309       -0.0872707445
  H        13.0219459944        3.0215058881        1.6192292851
  H        11.4633573860        3.7294405740        1.1660158355
