      12
 i =   929500, time =   185900.000, E =       -12.6444600415
  C         0.0500854540        0.0596085267       -0.0226807953
  C        -0.0186585996       -0.0241251200       -0.0690710420
  C        -0.0217236044       -0.0540422054        0.1123317442
  H        -0.0062790271       -0.0012204926       -0.0149341186
  C         0.0021087466        0.0027080825       -0.0026351336
  H         0.0019114338        0.0033314430       -0.0021275104
  H         0.0002959686       -0.0038575671        0.0012042000
  H         0.0139442763       -0.0021040756       -0.0183622903
  H        -0.0236446599        0.0150929117        0.0256509700
  H         0.0003766601        0.0008566519       -0.0018077374
  H        -0.0015203116        0.0037538796       -0.0054498841
  H         0.0031036632       -0.0000020344       -0.0021184025
