      12
 i =   844000, time =   168800.000, E =       -12.6468719884
  C         0.0189277118       -0.0098013955       -0.0178401419
  C        -0.0357926224        0.0234525926        0.0207013351
  C         0.0067700321       -0.0355071958       -0.0263302199
  H         0.0153370125        0.0056081502       -0.0063165399
  C         0.0019031427        0.0061048759       -0.0078673834
  H        -0.0036926713       -0.0087329826        0.0032591180
  H        -0.0123870894        0.0024188360        0.0301766842
  H         0.0149711438       -0.0008170147       -0.0033833220
  H        -0.0072289444        0.0157880396        0.0016127880
  H         0.0004724866        0.0021301857        0.0015525439
  H         0.0039169569       -0.0016847662        0.0038348523
  H        -0.0031971588        0.0010406749        0.0006002856
