      12
 i =   370900, time =    74180.000, E =       -12.7345019225
  C         0.1009806745        0.1074823404       -0.2602193668
  C        -0.0145569200        0.2877050101       -0.1407476039
  C        -0.0094829101       -0.2586635773        0.1905838786
  H        -0.0124551685        0.0032435277        0.0012795390
  C        -0.0226824394       -0.1434391537        0.2395450251
  H         0.0054686300        0.0049347955        0.0009913030
  H         0.0063557280        0.0010319888       -0.0183685033
  H        -0.0085428933        0.0153636633       -0.0044820230
  H        -0.0002241150       -0.0055359369       -0.0019404096
  H        -0.0113429509        0.0041736850       -0.0054746139
  H        -0.0043704452       -0.0039259972        0.0001083885
  H        -0.0291471899       -0.0123703457       -0.0012756137
