      12
 i =  1222000, time =   244400.000, E =       -12.6484717172
  C        -0.0649757364       -0.0210568781        0.0038434047
  C         0.0348719029        0.0222752012        0.0395662926
  C         0.0253720034        0.0265014278       -0.0468660816
  H        -0.0093007539       -0.0102177935       -0.0079466437
  C         0.0045192597        0.0054047365       -0.0010665543
  H        -0.0002742397       -0.0021015281        0.0020120747
  H         0.0124211533        0.0049894719       -0.0094705285
  H        -0.0089521536       -0.0045148545        0.0191445618
  H         0.0140622718       -0.0113068419       -0.0077810924
  H        -0.0024883547       -0.0023222145        0.0046527818
  H        -0.0026722130       -0.0055400404        0.0026023595
  H        -0.0025831397       -0.0021106862        0.0013094254
