      12
 i =  1094300, time =   218860.000, E =       -12.6582482462
  C        -4.6911187397       -0.9068356019       -0.1617677757
  C        -5.7762705789       -1.9019956222       -0.0107186387
  C        -6.1580630732       -0.6403504677       -0.1786248214
  H        -6.0114283265       -2.9265436372        0.1888417940
  C        13.7721053153        2.8502061224        0.3068896412
  H        14.6576478598        3.4688710593        0.2601275084
  H        -4.0561985679       -0.6114946102        0.7101022134
  H        -4.0591152055       -0.8161211421       -1.0919532489
  H        -6.8966232532        0.1518594107       -0.4271244745
  H        13.5673377484        2.4595497058       -0.6830719485
  H        13.9059563152        1.9941565945        0.9613327923
  H        12.8931533649        3.4171671809        0.6086937002
