      12
 i =   500000, time =   100000.000, E =       -12.7210624643
  C         0.6162324533        0.1645220277        0.3494919346
  C        -0.5936008176       -0.2979730102        0.2093203912
  C        -1.9031682320        0.4323440738       -0.1055648980
  H        -0.6670630727       -1.4198547787       -0.0650118519
  C         1.8898908113       -0.3168191957       -0.3194139204
  H         0.6774300665        1.2555856463        0.5127614834
  H        -1.8884743988        1.4757595593        0.2272651416
  H        -2.0992314501        0.3920914169       -1.1761584041
  H        -2.7282323949       -0.0733598977        0.4079241364
  H         2.7599285736       -0.1496475842        0.3379455234
  H         1.8291487914       -1.4190905629       -0.5522595651
  H         2.0050282515        0.1521252068       -1.2872380860
