      12
 i =   627500, time =   125500.000, E =       -12.7264223585
  C        -0.0371175862       -0.0175718956        0.0850869642
  C         0.0413772853       -0.0705569909        0.0726136017
  C         0.0181480031        0.0293646027       -0.0313636712
  H         0.0025258128        0.0135881079        0.0046606844
  C         0.0089387087        0.0304711182       -0.0543079448
  H        -0.0010448218       -0.0075816852       -0.0040117060
  H         0.0050388355        0.0157393586       -0.0126603586
  H        -0.0281657708       -0.0011318042       -0.0140224528
  H        -0.0028188259        0.0021877282       -0.0147889830
  H         0.0011135783       -0.0091250778       -0.0135984996
  H        -0.0119620127        0.0026843079       -0.0054000065
  H         0.0039667938        0.0119322302       -0.0122076277
