      12
 i =  1106100, time =   221220.000, E =       -12.6513704674
  C        -4.8674307944       -0.7793582393       -0.5891099147
  C        -5.3962654464       -1.5959030432        0.5739621380
  C        -6.2987705484       -1.2759845789       -0.3311746288
  H        -5.0004131147       -2.2066409053        1.3537559764
  C        13.7177774073        3.0192384150        0.3089294435
  H        14.5729038796        3.6692307628        0.3371304262
  H        -4.5153024820        0.2058478643       -0.2403584447
  H        -4.1324734616       -1.2941603470       -1.3524612831
  H        -7.3279299219       -1.2515968040       -0.5363673365
  H        13.5758463747        2.6433641095       -0.7196906578
  H        13.8815948523        2.1922470570        0.9810729813
  H        12.8433379745        3.5727635200        0.6224960997
