      12
 i =  1327900, time =   265580.000, E =       -12.6526085148
  C         0.0207817775       -0.0075534586       -0.0391680463
  C        -0.0214757284       -0.0250022706        0.0037650442
  C         0.0016520745       -0.0023154287        0.0248158129
  H         0.0119095989        0.0008161333        0.0059342454
  C         0.0075010477        0.0130466940        0.0090325221
  H        -0.0101888217       -0.0052261783        0.0039864882
  H        -0.0097130985        0.0017397202        0.0247127509
  H        -0.0069905404        0.0048354345       -0.0043998806
  H         0.0030988965        0.0261835072       -0.0136206461
  H        -0.0033014897       -0.0095429280       -0.0152149988
  H         0.0019879570        0.0026239267        0.0005201683
  H         0.0047383265        0.0003948483       -0.0003634601
