      12
 i =  1461500, time =   292300.000, E =       -12.6518521326
  C         0.0291487867       -0.0176836544        0.0124579248
  C         0.0035816688       -0.0761017585        0.0884826659
  C        -0.0423303482        0.0525773095       -0.0800792214
  H        -0.0029930188        0.0087085231       -0.0199805081
  C         0.0141831629        0.0163483007       -0.0164872485
  H        -0.0060006954       -0.0069321338        0.0059929395
  H        -0.0013522701        0.0309372388       -0.0007666417
  H         0.0044661024        0.0068190845        0.0009513729
  H         0.0049128999       -0.0115610129        0.0055230642
  H        -0.0006910989       -0.0021438547        0.0003158176
  H         0.0001189241       -0.0007702677        0.0027987359
  H        -0.0030441134       -0.0001977746        0.0007910988
