      12
 i =   260200, time =    52040.000, E =       -12.7304692457
  C         0.1096390033       -0.2373755113        0.4245232801
  C        -0.0996280506        0.1499934186        0.4295167872
  C         0.0659877878       -0.0218629294       -0.4544698315
  H         0.0017437366       -0.0366200768       -0.0106743853
  C        -0.0642764441        0.1438368349       -0.4207163908
  H        -0.0085473687       -0.0014729009       -0.0099472439
  H        -0.0057532022       -0.0099223513        0.0011432704
  H        -0.0091649679        0.0222315810       -0.0021866191
  H         0.0003094877        0.0016093232        0.0294323615
  H         0.0004583548       -0.0090201822        0.0003060970
  H         0.0023611439       -0.0007729909        0.0018254486
  H         0.0068705193       -0.0006242149        0.0112472258
