      12
 i =   987900, time =   197580.000, E =       -12.6458011521
  C         0.0481272998        0.0005079291        0.0362688314
  C        -0.0004518082        0.0570484575        0.0655456483
  C        -0.0049804740       -0.0316873171       -0.0366440787
  H        -0.0091181512       -0.0274957435       -0.0156375994
  C         0.0013840776        0.0003765640       -0.0228539925
  H        -0.0007799796       -0.0014492642        0.0118176703
  H        -0.0333602119       -0.0079516327       -0.0032699258
  H        -0.0099408182        0.0154103075       -0.0250944802
  H         0.0093484304       -0.0052685846       -0.0254547334
  H        -0.0008352631       -0.0051039037       -0.0039672754
  H         0.0003118617        0.0043156279        0.0079977342
  H         0.0002950368        0.0012975599        0.0112922014
