      12
 i =  1373000, time =   274600.000, E =       -12.6534889924
  C        -4.9229279898       -2.0259185303        0.4927285765
  C        -5.0285439532       -1.3757040647       -0.8867552008
  C        -5.9491188140       -1.0767789556       -0.0402252719
  H        -4.4688655410       -1.2221246914       -1.7355870480
  C        13.1839458480        3.7540922471        0.2967706846
  H        13.8225653290        4.2870087973       -0.4117253898
  H        -5.0176323528       -3.0384684350        0.7478970482
  H        -4.0805394467       -1.5514026544        1.1201959570
  H        -6.8097704481       -0.5801156534        0.2956292348
  H        12.9600874004        2.7895011680       -0.0905960207
  H        13.7055296364        3.6397922009        1.2618661823
  H        12.2604005374        4.3067414186        0.4505580142
