      12
 i =    43700, time =     8740.000, E =       -12.7298169167
  C         0.0461381537        0.1066845773        0.0371870157
  C        -0.0530678270        0.0254027395        0.1289736255
  C         0.0249349288       -0.0465842872       -0.1045835336
  H        -0.0042432690       -0.0210296676        0.0033853659
  C        -0.0327599068       -0.0854825116       -0.0964818294
  H        -0.0085962217       -0.0183744460        0.0050128701
  H         0.0030277803        0.0012097095        0.0010777206
  H        -0.0108815483       -0.0003866183        0.0044940357
  H         0.0092647732        0.0177210466       -0.0059327689
  H         0.0037146456        0.0177075686       -0.0054342389
  H         0.0219273344       -0.0093442849        0.0154446054
  H         0.0005411569        0.0124761741        0.0168571319
