      12
 i =   605500, time =   121100.000, E =       -12.7191034472
  C        -0.0466098592        0.1643722901       -0.0668903623
  C         0.0404091972       -0.0238597792       -0.1898229652
  C        -0.0534572584       -0.0848554385        0.1562996600
  H         0.0218659588        0.0038891370        0.0183399749
  C         0.0178797434       -0.1224442684        0.1136680212
  H        -0.0032256669       -0.0021031611        0.0032972721
  H         0.0073386225        0.0328906521        0.0243199461
  H        -0.0019207719        0.0012199467       -0.0281331226
  H         0.0273795494        0.0202282494       -0.0071290245
  H         0.0063070166        0.0098948015       -0.0137367772
  H        -0.0136892555       -0.0013938687       -0.0120340477
  H        -0.0022772759        0.0021614390        0.0018214251
