      12
 i =  1017400, time =   203480.000, E =       -12.6450281190
  C        -5.9256404594       -1.7231254592        0.1244113338
  C        -5.2985811262       -0.8379329447       -0.8571596395
  C        -5.7193198540       -0.2340045393        0.2028565837
  H        -5.2235579345       -0.8247405348       -1.9138274849
  C        14.1234254335        2.4103345882        0.4264421683
  H        14.8818614143        3.1048310555        0.6470445060
  H        -6.8339316554       -2.2401514688       -0.1392960993
  H        -5.3132712150       -2.3581132736        0.6289528149
  H        -5.4433731332        0.4764792574        0.9714807405
  H        14.1905295142        2.0525236785       -0.6217505057
  H        14.2131969565        1.5380242209        1.0740638857
  H        13.1332916862        2.8356033359        0.5860459491
