      12
 i =  1377300, time =   275460.000, E =       -12.6525055208
  C        -5.4621369885       -2.3305132896       -0.1790544872
  C        -4.6363003538       -1.0883739506        0.2241654388
  C        -5.6438886910       -0.9147707155       -0.6035091690
  H        -3.8296146917       -0.7420388036        0.9090418035
  C        13.1000146582        3.6714463572        0.4606683337
  H        13.7673639480        4.2698553925       -0.1765832823
  H        -4.7871936186       -2.9994856462       -0.6878447430
  H        -6.1463274266       -2.7661136160        0.5222556053
  H        -6.1826451512       -0.3216502115       -1.3678120954
  H        12.9311750737        2.7493519174       -0.0299291550
  H        13.5744924608        3.5024962264        1.4574172271
  H        12.1587597159        4.1985552806        0.5380123647
