      12
 i =  1227200, time =   245440.000, E =       -12.6509805433
  C        -0.0385823751        0.1083308247       -0.0502275061
  C        -0.0615622722        0.0738904366        0.0968285248
  C         0.1182966630       -0.1735249090       -0.0176029860
  H         0.0001942645       -0.0004750845       -0.0028410652
  C         0.0016679885        0.0046759961       -0.0122209971
  H        -0.0043332230       -0.0009178708       -0.0034653243
  H        -0.0042342192       -0.0124818466        0.0130667096
  H         0.0002982372       -0.0162404827        0.0023261616
  H        -0.0149109816        0.0142536894       -0.0153528918
  H         0.0014837218       -0.0001780343       -0.0077356501
  H         0.0007527060        0.0023804970       -0.0016859905
  H         0.0009294900        0.0002867842       -0.0010889850
