      12
 i =   913800, time =   182760.000, E =       -12.6421984358
  C         0.0259893167       -0.0185302047        0.0089185093
  C         0.0213548205       -0.0703162683        0.0126542605
  C        -0.0295990638        0.0779255522       -0.0011271551
  H        -0.0085572083        0.0054018047        0.0006855672
  C        -0.0019450257       -0.0009831058        0.0007707231
  H         0.0048476104        0.0051777496       -0.0030090495
  H        -0.0203523754        0.0099518356       -0.0005659061
  H        -0.0021763304       -0.0088242624       -0.0164673348
  H         0.0142635321        0.0057234963       -0.0044145532
  H        -0.0019192293        0.0018800939        0.0058038011
  H        -0.0026573399       -0.0028383577       -0.0013540603
  H         0.0007512930       -0.0045683334       -0.0018948020
