      12
 i =   599500, time =   119900.000, E =       -12.6890135462
  C         0.6278834352       -0.0815828988        0.4182525290
  C        -0.6588345476       -0.2991030170        0.1900592185
  C        -1.8308841043        0.5666577316       -0.0811464073
  H        -0.7705255915       -1.3760165022       -0.2337601542
  C         1.8290532269       -0.2717788066       -0.3891390710
  H         0.8785033242        0.9368466641        0.9119598921
  H        -1.7184389330        1.6315319152        0.2939886623
  H        -1.8290677437        0.5478402277       -1.1367285576
  H        -2.7034424108        0.0767854400        0.3174720231
  H         1.8787986622        0.6439416049       -0.8942796279
  H         2.7793751055       -0.3350462443        0.1457818273
  H         1.8754306061       -1.1033996004       -1.0491669966
