      12
 i =   870000, time =   174000.000, E =       -12.6549243312
  C        -5.0700634232       -1.3719313960        0.3099460043
  C        -5.8352861334       -1.1366362970       -1.0037480470
  C        -6.3209193004       -0.5501529340        0.0373944741
  H        -5.7585340286       -1.3909889968       -2.0819510100
  C        14.2784922805        2.5654946709        0.5066485863
  H        14.7536338516        3.4516043163        0.1398036010
  H        -4.9173751442       -2.2896668627        0.8302385060
  H        -4.2059217465       -0.6979800460        0.4540918889
  H        -7.0756462311        0.0488227283        0.5535443702
  H        14.2389781533        1.8191887328       -0.2797606528
  H        14.8349985993        2.1504603316        1.3570861689
  H        13.2558265521        2.7858828432        0.8114880820
