      12
 i =  1278500, time =   255700.000, E =       -12.6512340570
  C         0.0243199242       -0.0464558874        0.0754232839
  C         0.0050952127       -0.0548896687       -0.0553489533
  C        -0.0740143241        0.1037787705       -0.0264496487
  H         0.0429190101        0.0061680883        0.0143402777
  C         0.0016220663        0.0027804662        0.0212096437
  H        -0.0005937255        0.0000279547       -0.0003217347
  H         0.0028093426       -0.0152107228        0.0009330876
  H        -0.0105996789        0.0175826168       -0.0032489293
  H         0.0039579553       -0.0151861187       -0.0253733104
  H         0.0009454400        0.0015330156       -0.0002516417
  H         0.0009596081        0.0004332504        0.0002296961
  H         0.0025791693       -0.0005617649       -0.0011417709
