      12
 i =   729500, time =   145900.000, E =       -12.6530164928
  C        -2.1064462054       -0.1189614506       -0.8196112423
  C        -1.7057370051       -0.8489941471        0.4226286635
  C        -0.7266772585       -0.5418666439       -0.4156035271
  H        -2.0203924740       -1.3755578116        1.2948797510
  C         3.8226056718        1.2281134471        0.7079645439
  H         3.6185223760        0.1903539778        0.5345592179
  H        -2.5770793544       -0.8465673335       -1.5595948003
  H        -2.4747109348        0.8846405657       -0.8427065730
  H         0.2659653210       -0.1628664758       -0.4491823245
  H         4.8826413146        1.3911565320        0.4690985952
  H         3.2124138759        1.7996111167        0.0427362141
  H         3.6275938336        1.4760957283        1.7568894791
