      12
 i =   697800, time =   139560.000, E =       -12.6863827992
  C        -1.3598168794       -0.4209501794       -0.2320466963
  C        -1.8821256264       -0.4044700858        0.8334450189
  C        -0.2990328524       -0.7480371218       -1.0834173450
  H        -2.4924111945       -0.3110803880        1.6909443309
  C         2.8077848638        1.3616871860        0.4948541305
  H         3.0814621172        0.2970931951        0.3916222109
  H        -0.5641950272       -0.5421467303       -2.1532178903
  H         0.5934405317       -0.2323072031       -0.7151356817
  H        -0.0422262289       -1.7930283889       -0.9930361854
  H         1.9065382102        1.4342508879        1.0927019693
  H         3.6127715861        1.8815188669        1.0038644739
  H         2.6413811925        1.7891717456       -0.4706874829
