      12
 i =   131600, time =    26320.000, E =       -12.7181174555
  C        -0.1289904899       -0.1408792664       -0.0649820251
  C         0.1062549340       -0.0269490237       -0.1665394192
  C        -0.0540662885        0.0778091807        0.1941321378
  H         0.0027185080        0.0100121187       -0.0056034665
  C         0.0587739796        0.1395120251        0.1101887493
  H         0.0013088441       -0.0040950764        0.0027831891
  H         0.0158664983       -0.0235318727        0.0025158864
  H        -0.0009416352       -0.0201823643       -0.0376500212
  H         0.0030306312        0.0114088242       -0.0139400887
  H        -0.0008277462       -0.0115843664       -0.0138110549
  H        -0.0014275136       -0.0168563327        0.0022287865
  H        -0.0016997217        0.0053361538       -0.0093226736
