      12
 i =   899200, time =   179840.000, E =       -12.6523581721
  C        -0.0340197856        0.0724232871       -0.0123537741
  C        -0.0086645254       -0.0113402701        0.0244851212
  C        -0.0111041431        0.0059848735       -0.0212756591
  H        -0.0006075752        0.0039049876        0.0074308630
  C         0.0091941639        0.0132110931       -0.0106924584
  H        -0.0032196501       -0.0048413943        0.0031487135
  H         0.0501619507       -0.0339866253        0.0225659527
  H         0.0003170448       -0.0389064688       -0.0173381547
  H         0.0053141664        0.0041187749       -0.0046487666
  H        -0.0019413510       -0.0042517131        0.0012928014
  H        -0.0012512268       -0.0041546220        0.0040663718
  H        -0.0041790686       -0.0021619225        0.0033189893
