      12
 i =    32800, time =     6560.000, E =       -12.7083818158
  C         0.3836240618       -0.3088543200        0.4638778225
  C        -0.4357200551        0.6837369438        0.0996015728
  C        -1.7785607371        0.2540958182       -0.4644590949
  H        -0.0559652568        1.7002269475       -0.1424256921
  C         1.8021773618       -0.5407367529        0.0169003481
  H        -0.0847674497       -1.2861412297        0.7998497394
  H        -2.6561763234        0.8051174915       -0.2837850131
  H        -1.4339150739        0.2693854455       -1.4933315894
  H        -1.9930618355       -0.7523865303       -0.1049814732
  H         2.3022680217        0.3091589175       -0.5782629280
  H         2.4054652526       -0.6093010143        0.9331653844
  H         1.8555152782       -1.4875556080       -0.5115488762
