      12
 i =   226700, time =    45340.000, E =       -12.7431771115
  C         0.5522427251        0.3054117080        0.2030879986
  C        -0.5570587113       -0.3349805079       -0.0959771624
  C        -1.9155211784        0.3202647309       -0.0556361704
  H        -0.6498747185       -1.3785249657       -0.4566516760
  C         1.9257499526       -0.2888485878       -0.0340414255
  H         0.5250872013        1.3420938061        0.5124825320
  H        -2.4203121154       -0.1693220752        0.8283808155
  H        -1.8849697062        1.3932864465        0.1611362639
  H        -2.4831684546        0.1359362375       -0.9676117362
  H         1.8381535625       -1.2719910476       -0.4843017733
  H         2.5247286451        0.3304501151       -0.7084724654
  H         2.4858563372       -0.4039416185        0.9073020443
