      12
 i =   531900, time =   106380.000, E =       -12.6703691494
  C        -0.1154151062        0.1786136743        0.0663122534
  C         0.1098658512       -0.2025380226        0.0563530738
  C        -0.0451245459        0.0995479135       -0.0648458414
  H        -0.0087385257        0.0266798928       -0.0075914411
  C         0.0251382351       -0.0521421718       -0.0411658389
  H         0.0015002150       -0.0043521163       -0.0052998858
  H         0.0044553659       -0.0113129016       -0.0056653446
  H         0.0062068746       -0.0014720523        0.0101572263
  H        -0.0065509659       -0.0047713436        0.0074663300
  H         0.0167625458       -0.0062123131       -0.0255109340
  H        -0.0019867037       -0.0259641052       -0.0003740738
  H         0.0138867599        0.0039235460        0.0101644760
