      12
 i =    96900, time =    19380.000, E =       -12.6986399595
  C         0.4970286566       -0.5628581672       -0.2911889590
  C        -0.4620291302        0.3848094753       -0.5366978922
  C        -1.8073025352        0.4503033306        0.1672939697
  H        -0.1497323206        1.3581615888       -0.7211150005
  C         1.7797072170       -0.3193327414        0.4622017610
  H         0.1535323421       -1.5616075109       -0.1265984419
  H        -1.6142158278        1.0800273796        1.0686085633
  H        -2.4985698844        1.0454900426       -0.4470304844
  H        -2.1516688733       -0.5224430249        0.4648847204
  H         1.9741095255        0.7301473312        0.3741709988
  H         1.6013326930       -0.5632453220        1.5585132622
  H         2.5969831611       -1.0055437516        0.1926120910
