      12
 i =   624000, time =   124800.000, E =       -12.7209240221
  C         0.5759563921        0.3499717400       -0.1422608749
  C        -0.5897019179       -0.2120615478       -0.3606168730
  C        -1.7722290060        0.3965361940        0.3676031773
  H        -0.6327026275       -1.2106005920       -0.6798136757
  C         1.7804834320       -0.4970765339        0.0016090216
  H         0.6791161445        1.3803242380        0.2766236887
  H        -1.4821060627        1.1630585289        1.0397621303
  H        -2.4891011369        0.8613209924       -0.3227310746
  H        -2.2661129469       -0.3986488281        1.0127565774
  H         2.7533683954       -0.0451569760       -0.3620386685
  H         1.8903602353       -0.7750762054        1.1351302057
  H         1.6126104183       -1.4205235419       -0.5069189681
