      12
 i =  1429500, time =   285900.000, E =       -12.6536444046
  C        -0.0229731682       -0.0421842617       -0.0519696757
  C         0.0371274083       -0.0234162531        0.0985225747
  C        -0.0131567869        0.0691380407       -0.0652938702
  H        -0.0066647977       -0.0060623228        0.0165698774
  C         0.0036410454       -0.0013922167        0.0406932208
  H         0.0046649853        0.0056364564       -0.0038136809
  H        -0.0042972358       -0.0064667957        0.0176319982
  H         0.0079513026        0.0157655195       -0.0172712181
  H         0.0000678172       -0.0064893377       -0.0190136803
  H         0.0010062875       -0.0072758494       -0.0034712158
  H        -0.0045667161        0.0013110815       -0.0129956320
  H        -0.0028001415        0.0014359390        0.0004113020
