      12
 i =   902800, time =   180560.000, E =       -12.6473932213
  C         0.0164139417       -0.0745019911        0.0124614477
  C         0.0382224628       -0.0295533198       -0.0028489819
  C         0.0202597324        0.0486377417       -0.0065829235
  H        -0.0056566174        0.0006590658       -0.0029948956
  C         0.0099401062        0.0150238907       -0.0085317443
  H        -0.0153707644       -0.0165216079        0.0029781924
  H        -0.0290823984        0.0187514873       -0.0306316085
  H         0.0044904614        0.0439598467        0.0096081156
  H        -0.0415140599       -0.0029773083        0.0183010123
  H         0.0009744431       -0.0007923044       -0.0065878355
  H         0.0086646651       -0.0090843709        0.0147589796
  H        -0.0073419726        0.0063988701        0.0000702417
