      12
 i =   231700, time =    46340.000, E =       -12.7384775317
  C         0.5469324609        0.3451359838        0.1079759480
  C        -0.5488749982       -0.3327282244       -0.1238165630
  C        -1.8727010345        0.2836221555        0.0185727930
  H        -0.4275680830       -1.3836909303       -0.4096314831
  C         1.8673283452       -0.3013681599        0.0052988516
  H         0.4570005588        1.3565578702        0.5299944205
  H        -2.5510676097       -0.1632343968        0.7164472001
  H        -1.7331616666        1.2962652403        0.3567363431
  H        -2.3372528952        0.3203627291       -0.9982045005
  H         1.8199197656       -1.3346294982       -0.3881229458
  H         2.4242232919        0.2373808364       -0.8199705678
  H         2.4350755102       -0.2654008634        0.9170530929
