      12
 i =   587600, time =   117520.000, E =       -12.7039617990
  C         0.0280637087        0.0259605421        0.0030187507
  C        -0.0374586827       -0.0029558143       -0.0126252058
  C        -0.0097651772        0.0057665037        0.0284211764
  H        -0.0058738702       -0.0108880715       -0.0062773776
  C         0.0095579166       -0.0040809217        0.0178491155
  H         0.0127752629       -0.0055174767       -0.0037205524
  H        -0.0081222787       -0.0109096293       -0.0014169282
  H         0.0079089253        0.0006170078       -0.0067148675
  H         0.0120475983        0.0030925721       -0.0077349049
  H        -0.0060241224        0.0028629063       -0.0099006498
  H        -0.0109920509        0.0011549189       -0.0032149348
  H         0.0078827702       -0.0051025373        0.0023163786
