      12
 i =   649400, time =   129880.000, E =       -12.6650127207
  C        -0.0090334415       -0.0237209767       -0.0227457546
  C         0.0201133613       -0.0078612704        0.0201541722
  C        -0.0308673898        0.0425478014        0.0181093985
  H        -0.0016056798       -0.0163822071       -0.0002079077
  C         0.0209731799       -0.0233818771        0.0305378162
  H         0.0074610889        0.0288061359        0.0193769741
  H        -0.0073231935       -0.0031696337        0.0006061156
  H         0.0012167511       -0.0140311828       -0.0288628979
  H         0.0083585811        0.0007423991       -0.0060603705
  H        -0.0045871798        0.0230233405       -0.0081688833
  H        -0.0079485448        0.0012091239       -0.0144870650
  H         0.0032424671       -0.0077816529       -0.0082515978
