      12
 i =  1037100, time =   207420.000, E =       -12.6546373797
  C         0.0263867298       -0.0366836808       -0.0211719367
  C        -0.0403506430       -0.0590501636        0.0132905916
  C         0.0303071448        0.0508910473        0.0548976862
  H         0.0242436753        0.0280655280       -0.0108389588
  C        -0.0262586099       -0.0254345114       -0.0170254559
  H         0.0129199257        0.0108817036        0.0003096868
  H        -0.0108437051        0.0070332862       -0.0024139493
  H        -0.0021649613        0.0163516924       -0.0129035186
  H        -0.0225431534       -0.0008634222       -0.0124507253
  H         0.0039889015        0.0045770106        0.0091669619
  H        -0.0005813349        0.0053708405       -0.0028375258
  H         0.0048960305       -0.0011393305        0.0019771440
