      12
 i =    56700, time =    11340.000, E =       -12.7417421213
  C         0.3902832119       -0.5137573688        0.1674071005
  C        -0.3940205873        0.4917684200       -0.1612207456
  C        -1.8722987371        0.3741468636       -0.2022325693
  H        -0.0019067878        1.4539891504       -0.4397632148
  C         1.8759780181       -0.3474051713        0.1870923549
  H         0.0071290397       -1.4651883857        0.4318080795
  H        -2.3254622993        1.1176185536        0.4608196244
  H        -2.3478743126        0.5617236258       -1.2075932907
  H        -2.1793471154       -0.5660209853        0.1994894605
  H         2.2478806829        0.6162273619       -0.1040127213
  H         2.3101526808       -0.6007139295        1.1740535892
  H         2.2901203691       -1.1742694935       -0.4081065662
