      12
 i =   132300, time =    26460.000, E =       -12.7210124261
  C        -0.1485764471       -0.1433350601       -0.0795222490
  C         0.1419583689        0.0018708903       -0.2127657871
  C        -0.0523549983        0.0354343285        0.1827938462
  H         0.0012100566        0.0068192519       -0.0064630130
  C         0.0671651108        0.1167060755        0.1416108114
  H        -0.0039127780       -0.0195207704        0.0082947975
  H        -0.0069456180       -0.0024035146        0.0012441290
  H         0.0003825298       -0.0030561758       -0.0044661665
  H         0.0017423232        0.0059735835       -0.0009857315
  H         0.0063050045       -0.0196912437       -0.0057669761
  H         0.0035050443        0.0193440207       -0.0137145345
  H        -0.0104785966        0.0018586142       -0.0102591263
