      12
 i =  1207100, time =   241420.000, E =       -12.6474591961
  C         0.0520882694       -0.0025862934        0.0156976840
  C         0.0064125881       -0.0495297762       -0.0018009765
  C        -0.0250698985        0.0491341179       -0.0354897722
  H        -0.0018623695       -0.0028648494       -0.0064199906
  C         0.0090318870        0.0091999580        0.0087524582
  H        -0.0043687021       -0.0032742438       -0.0024516783
  H        -0.0238949266        0.0039941834       -0.0017451344
  H         0.0035264385       -0.0052902736        0.0127619943
  H        -0.0097384354        0.0119514725        0.0055445379
  H        -0.0022804207       -0.0013982367        0.0047384563
  H        -0.0027995887       -0.0068097863        0.0014401144
  H        -0.0010448415       -0.0025262724       -0.0010276932
