      12
 i =   637100, time =   127420.000, E =       -12.7275401254
  C        -0.0630508590        0.0076017854        0.2193950026
  C         0.0698076688       -0.1926412685        0.1460571220
  C        -0.0451922093        0.1413690355       -0.1874416400
  H        -0.0019247518        0.0057256227       -0.0028223152
  C         0.0149932524        0.0643435882       -0.2204558484
  H         0.0002782703       -0.0066726824        0.0000327855
  H         0.0070240805        0.0121511340        0.0095584100
  H         0.0189321528       -0.0079632803        0.0092426647
  H        -0.0038924378       -0.0088847384        0.0094685628
  H        -0.0058583168       -0.0122344256        0.0005902738
  H         0.0083166295        0.0068556596        0.0323041016
  H         0.0005665204       -0.0096504302       -0.0159291195
