      12
 i =    72600, time =    14520.000, E =       -12.7198317178
  C         0.0285708939        0.0246998965        0.0182630923
  C        -0.0170365197        0.0049636767       -0.0093924170
  C         0.0047323077        0.0058389096       -0.0003143596
  H        -0.0010695859       -0.0188597630        0.0052855453
  C        -0.0210934615        0.0071723181        0.0362129026
  H        -0.0024642816       -0.0007261959       -0.0069640804
  H         0.0034983197       -0.0051356851       -0.0128442587
  H         0.0040107393        0.0064858513        0.0127207705
  H         0.0008130776       -0.0051840151        0.0032211493
  H        -0.0094121625       -0.0018159419       -0.0052059176
  H        -0.0122096286       -0.0004774536       -0.0354722360
  H         0.0216603017       -0.0169615977       -0.0055101907
