      12
 i =  1239100, time =   247820.000, E =       -12.6488358756
  C        -4.6975399139       -1.1919547796       -0.8196258860
  C        -5.3190136989       -1.5824235751        0.4872658024
  C        -6.1074486877       -0.9912405788       -0.3545504038
  H        -5.2971653751       -2.1165616439        1.4460998298
  C        13.3812878982        3.1418852532        0.6171518960
  H        14.3290264253        3.5186548196        0.9740783632
  H        -3.9094414990       -0.5709906866       -0.8602481643
  H        -4.6139061008       -2.0805887442       -1.5402388286
  H        -6.9995899390       -0.3626834792       -0.5276479652
  H        13.4678033128        2.9928536384       -0.4647676174
  H        13.1089588707        2.1831893481        1.0568522020
  H        12.5967357514        3.8685910932        0.7471215739
