      12
 i =     9000, time =     1800.000, E =       -12.7221792527
  C         0.5493315933        0.0974224879        0.3805378648
  C        -0.1192463012       -0.2132937054       -0.7303569716
  C        -0.9410263298        0.8659109215       -1.3500192374
  H        -0.2142040313       -1.2478507246       -1.0933580762
  C         0.6092693867       -0.7810217809        1.6099580977
  H         0.6842889037        1.0999355107        0.6360701257
  H        -0.9912201356        0.9696713546       -2.4093389616
  H        -1.9632917816        0.6272594814       -0.9247123840
  H        -0.5634595993        1.7971387328       -0.9757418744
  H         0.6227031432       -1.8258634364        1.4330219176
  H         1.5142422030       -0.5610552175        2.1766072926
  H        -0.2607477914       -0.4900506003        2.2284727310
