      12
 i =   816900, time =   163380.000, E =       -12.6534171148
  C         0.0098597764       -0.0155308766        0.0278486751
  C         0.0328535635        0.0281401171       -0.0153786038
  C        -0.0236514223       -0.0499512828       -0.0047656597
  H        -0.0122199823        0.0125134434        0.0001863298
  C         0.0086720190        0.0133033868       -0.0018615648
  H        -0.0048114814       -0.0131712016        0.0032260092
  H         0.0101540205       -0.0010982316       -0.0106978803
  H        -0.0076059956        0.0112067252       -0.0019308919
  H        -0.0120853800        0.0113886372        0.0031381740
  H         0.0015123052       -0.0005680829       -0.0041450133
  H         0.0030721559        0.0009897045        0.0019769137
  H        -0.0057495791        0.0027776613        0.0024035121
