      12
 i =     9200, time =     1840.000, E =       -12.7175094224
  C         0.5905442197        0.0807482205        0.4413746223
  C        -0.0532490830       -0.0765447535       -0.7163532092
  C        -1.0502013740        0.8390266677       -1.4110276751
  H        -0.1521683352       -1.1103422599       -1.0119394369
  C         0.6605178310       -0.8474210050        1.6061054139
  H         0.7541052008        1.1702036212        0.7144823222
  H        -1.3945881091        0.5776459773       -2.4271798483
  H        -1.9683222440        0.7640108053       -0.8318660039
  H        -0.7966605467        1.9025715250       -1.2864477878
  H         0.4028977890       -1.9053808644        1.3449175012
  H         1.5803841090       -0.8333681802        2.1984602345
  H        -0.1846003494       -0.5154018517        2.2516784192
