      12
 i =   437800, time =    87560.000, E =       -12.6763706620
  C         0.0503221945       -0.0686985085       -0.2130971231
  C        -0.0288229863        0.1477252452        0.0997055416
  C         0.0143749962       -0.1072452602       -0.0220379182
  H         0.0000026112        0.0098021023        0.0014613151
  C        -0.0706376978       -0.0143119074        0.1299085520
  H         0.0102757709        0.0022558929        0.0054070086
  H        -0.0033394495        0.0021756635        0.0081576259
  H         0.0170483107        0.0047711450        0.0009307648
  H         0.0015129047       -0.0001711850        0.0033927669
  H         0.0039271694       -0.0041706341       -0.0064000328
  H        -0.0038994625        0.0164219086        0.0011627266
  H         0.0092356385        0.0114455375       -0.0085912275
