      12
 i =   124900, time =    24980.000, E =       -12.7046177426
  C         0.4507702005       -0.4375349267        0.4407272694
  C        -0.5126188118        0.5181338636        0.2627040078
  C        -1.8492655738        0.4093846363       -0.4299602760
  H        -0.2196586406        1.5037871606        0.3586538533
  C         1.9031017705       -0.4733981539       -0.1240242539
  H         0.1239503535       -1.4465868785        0.5848365493
  H        -2.5839918268        1.1182194554       -0.0656759440
  H        -1.6200615291        0.7022809626       -1.4703688983
  H        -2.3299687409       -0.5315072986       -0.3336309069
  H         2.1544781529        0.4839612824       -0.5360466035
  H         2.6801100716       -0.7447595202        0.5583626998
  H         1.8906187830       -1.2830284516       -0.8769510854
