      12
 i =   698500, time =   139700.000, E =       -12.6915963157
  C        -1.3987687089       -0.4725629712       -0.1725973151
  C        -2.1362450698       -0.4673776533        0.7808649897
  C        -0.2097131933       -0.6823066893       -0.9973226825
  H        -2.9098801840       -0.5580976705        1.5192372548
  C         2.9725938288        1.3778822326        0.4256728062
  H         3.2777028987        0.3312751483        0.3984378700
  H        -0.5600483159       -0.3435585026       -1.9755004263
  H         0.5686781474        0.0063781335       -0.7020393511
  H         0.2031066990       -1.6887455963       -1.0165193889
  H         2.1410825831        1.4801226716        1.1169048945
  H         3.8030936607        1.9801904231        0.7820899772
  H         2.6770696614        1.7043107826       -0.5589516735
