      12
 i =   327200, time =    65440.000, E =       -12.7308488018
  C         0.0394272857        0.0172313856       -0.0142674254
  C        -0.0128302799        0.0188743257       -0.0386543699
  C        -0.0058384307       -0.0484555925        0.0373952351
  H         0.0058189591        0.0068609305        0.0182760833
  C        -0.0478065896       -0.0118768156        0.0523645108
  H         0.0005105609       -0.0167218579       -0.0063870085
  H         0.0077873827        0.0065226648        0.0094164061
  H        -0.0093730265        0.0025716831       -0.0208312931
  H        -0.0014160479        0.0178730912       -0.0066003325
  H         0.0019465865       -0.0040543946       -0.0205530979
  H        -0.0005921561       -0.0150270641       -0.0022945245
  H         0.0223657559        0.0262016436       -0.0078641836
