      12
 i =  1267000, time =   253400.000, E =       -12.6497069846
  C         0.0376689134       -0.0379237578       -0.0173016774
  C         0.0550448981        0.0418326582        0.0090854319
  C        -0.0772849025       -0.0396609023       -0.0209699335
  H        -0.0050971955        0.0138115684        0.0029481788
  C        -0.0053218893       -0.0093315750        0.0045900510
  H         0.0029750874        0.0024060251       -0.0035419828
  H        -0.0210579271        0.0043290263        0.0026019462
  H         0.0040576405        0.0122650251        0.0132856271
  H         0.0033905675        0.0015098514        0.0060505055
  H         0.0037649730        0.0090884851        0.0050947625
  H         0.0017193059       -0.0003548194        0.0005172325
  H         0.0001405286        0.0020284150       -0.0023601418
